# vtk DataFile Version 3.0 
Results 
ASCII 
DATASET UNSTRUCTURED_GRID 
POINTS 	    1451 float 
  0.0000	   0.6000	  0.0000	 
  0.0000	   1.2000	  0.0000	 
  0.0000	   1.8000	  0.0000	 
  0.0000	   2.4000	  0.0000	 
  0.0000	   3.0000	  0.0000	 
  0.0000	   3.6000	  0.0000	 
  0.0000	   4.2000	  0.0000	 
  0.0000	   4.8000	  0.0000	 
  0.0000	   5.4000	  0.0000	 
  0.0000	   6.0000	  0.0000	 
  0.0000	   6.6000	  0.0000	 
  0.0000	   7.2000	  0.0000	 
  0.0000	   7.8000	  0.0000	 
  0.0000	   8.4000	  0.0000	 
  0.0000	   9.0000	  0.0000	 
  0.0000	   9.6000	  0.0000	 
  0.0000	  10.2000	  0.0000	 
  0.0000	  10.8000	  0.0000	 
  0.0000	  11.4000	  0.0000	 
  0.2250	   0.8475	  0.0000	 
  0.2250	   1.4200	  0.0000	 
  0.2250	   1.9925	  0.0000	 
  0.2250	   2.5650	  0.0000	 
  0.2250	   3.1375	  0.0000	 
  0.2250	   3.7100	  0.0000	 
  0.2250	   4.2825	  0.0000	 
  0.2250	   4.8550	  0.0000	 
  0.2250	   5.4275	  0.0000	 
  0.2250	   6.0000	  0.0000	 
  0.2250	   6.5725	  0.0000	 
  0.2250	   7.1450	  0.0000	 
  0.2250	   7.7175	  0.0000	 
  0.2250	   8.2900	  0.0000	 
  0.2250	   8.8625	  0.0000	 
  0.2250	   9.4350	  0.0000	 
  0.2250	  10.0075	  0.0000	 
  0.2250	  10.5800	  0.0000	 
  0.2250	  11.1525	  0.0000	 
  0.4500	   1.0950	  0.0000	 
  0.4500	   1.6400	  0.0000	 
  0.4500	   2.1850	  0.0000	 
  0.4500	   2.7300	  0.0000	 
  0.4500	   3.2750	  0.0000	 
  0.4500	   3.8200	  0.0000	 
  0.4500	   4.3650	  0.0000	 
  0.4500	   4.9100	  0.0000	 
  0.4500	   5.4550	  0.0000	 
  0.4500	   6.0000	  0.0000	 
  0.4500	   6.5450	  0.0000	 
  0.4500	   7.0900	  0.0000	 
  0.4500	   7.6350	  0.0000	 
  0.4500	   8.1800	  0.0000	 
  0.4500	   8.7250	  0.0000	 
  0.4500	   9.2700	  0.0000	 
  0.4500	   9.8150	  0.0000	 
  0.4500	  10.3600	  0.0000	 
  0.4500	  10.9050	  0.0000	 
  0.6750	   1.3425	  0.0000	 
  0.6750	   1.8600	  0.0000	 
  0.6750	   2.3775	  0.0000	 
  0.6750	   2.8950	  0.0000	 
  0.6750	   3.4125	  0.0000	 
  0.6750	   3.9300	  0.0000	 
  0.6750	   4.4475	  0.0000	 
  0.6750	   4.9650	  0.0000	 
  0.6750	   5.4825	  0.0000	 
  0.6750	   6.0000	  0.0000	 
  0.6750	   6.5175	  0.0000	 
  0.6750	   7.0350	  0.0000	 
  0.6750	   7.5525	  0.0000	 
  0.6750	   8.0700	  0.0000	 
  0.6750	   8.5875	  0.0000	 
  0.6750	   9.1050	  0.0000	 
  0.6750	   9.6225	  0.0000	 
  0.6750	  10.1400	  0.0000	 
  0.6750	  10.6575	  0.0000	 
  0.9000	   1.5900	  0.0000	 
  0.9000	   2.0800	  0.0000	 
  0.9000	   2.5700	  0.0000	 
  0.9000	   3.0600	  0.0000	 
  0.9000	   3.5500	  0.0000	 
  0.9000	   4.0400	  0.0000	 
  0.9000	   4.5300	  0.0000	 
  0.9000	   5.0200	  0.0000	 
  0.9000	   5.5100	  0.0000	 
  0.9000	   6.0000	  0.0000	 
  0.9000	   6.4900	  0.0000	 
  0.9000	   6.9800	  0.0000	 
  0.9000	   7.4700	  0.0000	 
  0.9000	   7.9600	  0.0000	 
  0.9000	   8.4500	  0.0000	 
  0.9000	   8.9400	  0.0000	 
  0.9000	   9.4300	  0.0000	 
  0.9000	   9.9200	  0.0000	 
  0.9000	  10.4100	  0.0000	 
  1.1250	   1.8375	  0.0000	 
  1.1250	   2.3000	  0.0000	 
  1.1250	   2.7625	  0.0000	 
  1.1250	   3.2250	  0.0000	 
  1.1250	   3.6875	  0.0000	 
  1.1250	   4.1500	  0.0000	 
  1.1250	   4.6125	  0.0000	 
  1.1250	   5.0750	  0.0000	 
  1.1250	   5.5375	  0.0000	 
  1.1250	   6.0000	  0.0000	 
  1.1250	   6.4625	  0.0000	 
  1.1250	   6.9250	  0.0000	 
  1.1250	   7.3875	  0.0000	 
  1.1250	   7.8500	  0.0000	 
  1.1250	   8.3125	  0.0000	 
  1.1250	   8.7750	  0.0000	 
  1.1250	   9.2375	  0.0000	 
  1.1250	   9.7000	  0.0000	 
  1.1250	  10.1625	  0.0000	 
  1.3500	   2.0850	  0.0000	 
  1.3500	   2.5200	  0.0000	 
  1.3500	   2.9550	  0.0000	 
  1.3500	   3.3900	  0.0000	 
  1.3500	   3.8250	  0.0000	 
  1.3500	   4.2600	  0.0000	 
  1.3500	   4.6950	  0.0000	 
  1.3500	   5.1300	  0.0000	 
  1.3500	   5.5650	  0.0000	 
  1.3500	   6.0000	  0.0000	 
  1.3500	   6.4350	  0.0000	 
  1.3500	   6.8700	  0.0000	 
  1.3500	   7.3050	  0.0000	 
  1.3500	   7.7400	  0.0000	 
  1.3500	   8.1750	  0.0000	 
  1.3500	   8.6100	  0.0000	 
  1.3500	   9.0450	  0.0000	 
  1.3500	   9.4800	  0.0000	 
  1.3500	   9.9150	  0.0000	 
  1.5750	   2.3325	  0.0000	 
  1.5750	   2.7400	  0.0000	 
  1.5750	   3.1475	  0.0000	 
  1.5750	   3.5550	  0.0000	 
  1.5750	   3.9625	  0.0000	 
  1.5750	   4.3700	  0.0000	 
  1.5750	   4.7775	  0.0000	 
  1.5750	   5.1850	  0.0000	 
  1.5750	   5.5925	  0.0000	 
  1.5750	   6.0000	  0.0000	 
  1.5750	   6.4075	  0.0000	 
  1.5750	   6.8150	  0.0000	 
  1.5750	   7.2225	  0.0000	 
  1.5750	   7.6300	  0.0000	 
  1.5750	   8.0375	  0.0000	 
  1.5750	   8.4450	  0.0000	 
  1.5750	   8.8525	  0.0000	 
  1.5750	   9.2600	  0.0000	 
  1.5750	   9.6675	  0.0000	 
  1.8000	   2.5800	  0.0000	 
  1.8000	   2.9600	  0.0000	 
  1.8000	   3.3400	  0.0000	 
  1.8000	   3.7200	  0.0000	 
  1.8000	   4.1000	  0.0000	 
  1.8000	   4.4800	  0.0000	 
  1.8000	   4.8600	  0.0000	 
  1.8000	   5.2400	  0.0000	 
  1.8000	   5.6200	  0.0000	 
  1.8000	   6.0000	  0.0000	 
  1.8000	   6.3800	  0.0000	 
  1.8000	   6.7600	  0.0000	 
  1.8000	   7.1400	  0.0000	 
  1.8000	   7.5200	  0.0000	 
  1.8000	   7.9000	  0.0000	 
  1.8000	   8.2800	  0.0000	 
  1.8000	   8.6600	  0.0000	 
  1.8000	   9.0400	  0.0000	 
  1.8000	   9.4200	  0.0000	 
  2.0250	   2.8275	  0.0000	 
  2.0250	   3.1800	  0.0000	 
  2.0250	   3.5325	  0.0000	 
  2.0250	   3.8850	  0.0000	 
  2.0250	   4.2375	  0.0000	 
  2.0250	   4.5900	  0.0000	 
  2.0250	   4.9425	  0.0000	 
  2.0250	   5.2950	  0.0000	 
  2.0250	   5.6475	  0.0000	 
  2.0250	   6.0000	  0.0000	 
  2.0250	   6.3525	  0.0000	 
  2.0250	   6.7050	  0.0000	 
  2.0250	   7.0575	  0.0000	 
  2.0250	   7.4100	  0.0000	 
  2.0250	   7.7625	  0.0000	 
  2.0250	   8.1150	  0.0000	 
  2.0250	   8.4675	  0.0000	 
  2.0250	   8.8200	  0.0000	 
  2.0250	   9.1725	  0.0000	 
  2.2500	   3.0750	  0.0000	 
  2.2500	   3.4000	  0.0000	 
  2.2500	   3.7250	  0.0000	 
  2.2500	   4.0500	  0.0000	 
  2.2500	   4.3750	  0.0000	 
  2.2500	   4.7000	  0.0000	 
  2.2500	   5.0250	  0.0000	 
  2.2500	   5.3500	  0.0000	 
  2.2500	   5.6750	  0.0000	 
  2.2500	   6.0000	  0.0000	 
  2.2500	   6.3250	  0.0000	 
  2.2500	   6.6500	  0.0000	 
  2.2500	   6.9750	  0.0000	 
  2.2500	   7.3000	  0.0000	 
  2.2500	   7.6250	  0.0000	 
  2.2500	   7.9500	  0.0000	 
  2.2500	   8.2750	  0.0000	 
  2.2500	   8.6000	  0.0000	 
  2.2500	   8.9250	  0.0000	 
  2.4750	   3.3225	  0.0000	 
  2.4750	   3.6200	  0.0000	 
  2.4750	   3.9175	  0.0000	 
  2.4750	   4.2150	  0.0000	 
  2.4750	   4.5125	  0.0000	 
  2.4750	   4.8100	  0.0000	 
  2.4750	   5.1075	  0.0000	 
  2.4750	   5.4050	  0.0000	 
  2.4750	   5.7025	  0.0000	 
  2.4750	   6.0000	  0.0000	 
  2.4750	   6.2975	  0.0000	 
  2.4750	   6.5950	  0.0000	 
  2.4750	   6.8925	  0.0000	 
  2.4750	   7.1900	  0.0000	 
  2.4750	   7.4875	  0.0000	 
  2.4750	   7.7850	  0.0000	 
  2.4750	   8.0825	  0.0000	 
  2.4750	   8.3800	  0.0000	 
  2.4750	   8.6775	  0.0000	 
  2.7000	   3.5700	  0.0000	 
  2.7000	   3.8400	  0.0000	 
  2.7000	   4.1100	  0.0000	 
  2.7000	   4.3800	  0.0000	 
  2.7000	   4.6500	  0.0000	 
  2.7000	   4.9200	  0.0000	 
  2.7000	   5.1900	  0.0000	 
  2.7000	   5.4600	  0.0000	 
  2.7000	   5.7300	  0.0000	 
  2.7000	   6.0000	  0.0000	 
  2.7000	   6.2700	  0.0000	 
  2.7000	   6.5400	  0.0000	 
  2.7000	   6.8100	  0.0000	 
  2.7000	   7.0800	  0.0000	 
  2.7000	   7.3500	  0.0000	 
  2.7000	   7.6200	  0.0000	 
  2.7000	   7.8900	  0.0000	 
  2.7000	   8.1600	  0.0000	 
  2.7000	   8.4300	  0.0000	 
  2.9250	   3.8175	  0.0000	 
  2.9250	   4.0600	  0.0000	 
  2.9250	   4.3025	  0.0000	 
  2.9250	   4.5450	  0.0000	 
  2.9250	   4.7875	  0.0000	 
  2.9250	   5.0300	  0.0000	 
  2.9250	   5.2725	  0.0000	 
  2.9250	   5.5150	  0.0000	 
  2.9250	   5.7575	  0.0000	 
  2.9250	   6.0000	  0.0000	 
  2.9250	   6.2425	  0.0000	 
  2.9250	   6.4850	  0.0000	 
  2.9250	   6.7275	  0.0000	 
  2.9250	   6.9700	  0.0000	 
  2.9250	   7.2125	  0.0000	 
  2.9250	   7.4550	  0.0000	 
  2.9250	   7.6975	  0.0000	 
  2.9250	   7.9400	  0.0000	 
  2.9250	   8.1825	  0.0000	 
  3.1500	   4.0650	  0.0000	 
  3.1500	   4.2800	  0.0000	 
  3.1500	   4.4950	  0.0000	 
  3.1500	   4.7100	  0.0000	 
  3.1500	   4.9250	  0.0000	 
  3.1500	   5.1400	  0.0000	 
  3.1500	   5.3550	  0.0000	 
  3.1500	   5.5700	  0.0000	 
  3.1500	   5.7850	  0.0000	 
  3.1500	   6.0000	  0.0000	 
  3.1500	   6.2150	  0.0000	 
  3.1500	   6.4300	  0.0000	 
  3.1500	   6.6450	  0.0000	 
  3.1500	   6.8600	  0.0000	 
  3.1500	   7.0750	  0.0000	 
  3.1500	   7.2900	  0.0000	 
  3.1500	   7.5050	  0.0000	 
  3.1500	   7.7200	  0.0000	 
  3.1500	   7.9350	  0.0000	 
  3.3750	   4.3125	  0.0000	 
  3.3750	   4.5000	  0.0000	 
  3.3750	   4.6875	  0.0000	 
  3.3750	   4.8750	  0.0000	 
  3.3750	   5.0625	  0.0000	 
  3.3750	   5.2500	  0.0000	 
  3.3750	   5.4375	  0.0000	 
  3.3750	   5.6250	  0.0000	 
  3.3750	   5.8125	  0.0000	 
  3.3750	   6.0000	  0.0000	 
  3.3750	   6.1875	  0.0000	 
  3.3750	   6.3750	  0.0000	 
  3.3750	   6.5625	  0.0000	 
  3.3750	   6.7500	  0.0000	 
  3.3750	   6.9375	  0.0000	 
  3.3750	   7.1250	  0.0000	 
  3.3750	   7.3125	  0.0000	 
  3.3750	   7.5000	  0.0000	 
  3.3750	   7.6875	  0.0000	 
  3.6000	   4.5600	  0.0000	 
  3.6000	   4.7200	  0.0000	 
  3.6000	   4.8800	  0.0000	 
  3.6000	   5.0400	  0.0000	 
  3.6000	   5.2000	  0.0000	 
  3.6000	   5.3600	  0.0000	 
  3.6000	   5.5200	  0.0000	 
  3.6000	   5.6800	  0.0000	 
  3.6000	   5.8400	  0.0000	 
  3.6000	   6.0000	  0.0000	 
  3.6000	   6.1600	  0.0000	 
  3.6000	   6.3200	  0.0000	 
  3.6000	   6.4800	  0.0000	 
  3.6000	   6.6400	  0.0000	 
  3.6000	   6.8000	  0.0000	 
  3.6000	   6.9600	  0.0000	 
  3.6000	   7.1200	  0.0000	 
  3.6000	   7.2800	  0.0000	 
  3.6000	   7.4400	  0.0000	 
  3.8250	   4.8075	  0.0000	 
  3.8250	   4.9400	  0.0000	 
  3.8250	   5.0725	  0.0000	 
  3.8250	   5.2050	  0.0000	 
  3.8250	   5.3375	  0.0000	 
  3.8250	   5.4700	  0.0000	 
  3.8250	   5.6025	  0.0000	 
[...]
POINT_DATA 	    1451 
VECTORS U float 
 50.0000	   0.0000	   0.0000	
 50.0000	   0.0000	   0.0000	
 50.0000	   0.0000	   0.0000	
 50.0000	   0.0000	   0.0000	
 50.0000	  -0.0000	   0.0000	
 50.0000	  -0.0000	   0.0000	
 50.0000	   0.0000	   0.0000	
 50.0000	  -0.0000	   0.0000	
 50.0000	  -0.0000	   0.0000	
 50.0000	   0.0000	   0.0000	
 50.0000	  -0.0000	   0.0000	
 50.0000	  -0.0000	   0.0000	
 50.0000	   0.0000	   0.0000	
 50.0000	   0.0000	   0.0000	
 50.0000	  -0.0000	   0.0000	
 50.0000	  -0.0000	   0.0000	
 50.0000	   0.0000	   0.0000	
 50.0000	   0.0000	   0.0000	
 50.0000	  -0.0000	   0.0000	
 49.1836	   5.9170	   0.0000	
 50.2525	   6.0771	   0.0000	
 50.2052	   9.7357	   0.0000	
 49.8658	  17.6454	   0.0000	
 49.9730	   9.9615	   0.0000	
 49.8060	  17.6122	   0.0000	
 49.4242	  20.9632	   0.0000	
 49.2744	  26.1591	   0.0000	
 49.7372	  29.5022	   0.0000	
 49.9411	  31.0537	   0.0000	
 49.8218	  31.0266	   0.0000	
 50.6648	  30.0331	   0.0000	
 50.3298	  25.9481	   0.0000	
 50.2062	  23.7449	   0.0000	
 50.2963	  22.6065	   0.0000	
 49.9805	  14.8949	   0.0000	
 50.0087	  17.6299	   0.0000	
 49.2977	  15.0087	   0.0000	
 50.4421	  15.0384	   0.0000	
 50.2677	  11.2115	   0.0000	
 46.6486	  16.8369	   0.0000	
 43.8151	  30.7380	   0.0000	
 56.1532	  22.8745	   0.0000	
 44.2950	  31.1509	   0.0000	
 47.5841	  36.2809	   0.0000	
 45.8613	  46.3660	   0.0000	
 46.9559	  54.8294	   0.0000	
 48.4830	  59.0539	   0.0000	
 49.3641	  61.0082	   0.0000	
 50.1703	  61.3497	   0.0000	
 51.1889	  61.0857	   0.0000	
 53.8278	  55.7033	   0.0000	
 51.5214	  45.2072	   0.0000	
 50.4145	  43.8412	   0.0000	
 55.5982	  41.2580	   0.0000	
 47.8603	  31.0488	   0.0000	
 52.6278	  32.1591	   0.0000	
 50.4297	  31.7778	   0.0000	
 45.7991	  18.5707	   0.0000	
 39.3071	  40.4639	   0.0000	
 52.4987	  34.9606	   0.0000	
 48.3423	  44.3770	   0.0000	
 43.6734	  47.2860	   0.0000	
 42.4077	  58.2996	   0.0000	
 42.4863	  66.9653	   0.0000	
 45.3228	  70.5818	   0.0000	
 47.5893	  73.5381	   0.0000	
 47.6542	  76.7049	   0.0000	
 50.1646	  81.8365	   0.0000	
 51.1406	  80.8791	   0.0000	
 55.4666	  82.8987	   0.0000	
 57.9460	  76.4423	   0.0000	
 51.9103	  63.3852	   0.0000	
 53.7658	  60.4748	   0.0000	
 56.1667	  59.6223	   0.0000	
 50.3875	  48.9532	   0.0000	
 48.1103	  47.4074	   0.0000	
 26.5973	  43.6157	   0.0000	
 46.5201	  44.4004	   0.0000	
 49.3178	  52.7444	   0.0000	
 43.9013	  61.4054	   0.0000	
 38.9398	  60.0301	   0.0000	
 39.4055	  65.3090	   0.0000	
 41.2450	  67.3073	   0.0000	
 44.4128	  70.4163	   0.0000	
 46.5485	  72.2296	   0.0000	
 47.3894	  73.0634	   0.0000	
 47.4317	  73.0284	   0.0000	
 50.9425	  79.8631	   0.0000	
 53.6589	  79.2284	   0.0000	
 59.4814	  82.5733	   0.0000	
 59.4138	  79.3351	   0.0000	
 53.8038	  76.6839	   0.0000	
 56.9767	  77.8705	   0.0000	
 54.6131	  76.3277	   0.0000	
 55.2114	  63.8159	   0.0000	
 38.0397	  50.0673	   0.0000	
 44.5841	  62.0391	   0.0000	
 41.1567	  70.5046	   0.0000	
 46.1710	  70.3689	   0.0000	
 37.4220	  66.9708	   0.0000	
 39.3768	  66.3459	   0.0000	
 40.5407	  68.0936	   0.0000	
 44.0082	  68.9828	   0.0000	
 45.9004	  70.5798	   0.0000	
 46.5664	  72.1818	   0.0000	
 47.9844	  73.8253	   0.0000	
 47.1630	  72.2239	   0.0000	
 53.2498	  79.9386	   0.0000	
 56.8835	  78.8262	   0.0000	
 60.2936	  83.5012	   0.0000	
 52.4066	  88.0745	   0.0000	
 54.0855	  90.6583	   0.0000	
 56.7505	  94.0975	   0.0000	
 61.9876	  96.7187	   0.0000	
 35.4532	  67.9704	   0.0000	
 41.8063	  78.7540	   0.0000	
 43.6554	  74.1931	   0.0000	
 45.3422	  76.8218	   0.0000	
 38.4360	  70.2175	   0.0000	
 39.0257	  71.2212	   0.0000	
 40.9834	  70.5637	   0.0000	
 43.3624	  72.4102	   0.0000	
 45.3850	  74.0840	   0.0000	
 45.1432	  76.6556	   0.0000	
 46.8602	  79.7341	   0.0000	
 48.1399	  81.5552	   0.0000	
 48.0683	  79.7998	   0.0000	
 56.4545	  87.3983	   0.0000	
 57.1706	  86.8161	   0.0000	
 52.0415	  96.3821	   0.0000	
 51.1850	  98.5049	   0.0000	
 53.2213	 104.6852	   0.0000	
 51.2266	 114.1724	   0.0000	
 34.3656	  65.6308	   0.0000	
 45.5168	  68.6913	   0.0000	
 43.0332	  67.7196	   0.0000	
 45.6378	  69.3730	   0.0000	
 37.9797	  66.8446	   0.0000	
 40.0810	  65.7888	   0.0000	
 40.1414	  67.5874	   0.0000	
 42.6492	  70.0718	   0.0000	
 43.7797	  73.1481	   0.0000	
 44.5363	  74.5330	   0.0000	
 45.3880	  75.2768	   0.0000	
 46.7426	  78.2305	   0.0000	
 49.2750	  80.0416	   0.0000	
 50.4360	  76.7404	   0.0000	
 57.4647	  84.3688	   0.0000	
 49.9786	  86.4575	   0.0000	
 50.1234	  89.8019	   0.0000	
 48.9256	  92.4053	   0.0000	
 46.4321	 103.1789	   0.0000	
 39.6363	  60.0250	   0.0000	
 44.9918	  65.6366	   0.0000	
 42.7323	  64.5058	   0.0000	
 43.4321	  70.1661	   0.0000	
 39.2053	  65.6196	   0.0000	
 38.8533	  67.5826	   0.0000	
 39.2303	  69.5931	   0.0000	
 41.0370	  72.5658	   0.0000	
 43.0010	  74.5079	   0.0000	
 43.3531	  76.4823	   0.0000	
 45.0599	  78.4361	   0.0000	
 44.7796	  78.5069	   0.0000	
 47.6564	  81.7891	   0.0000	
 52.5388	  82.1110	   0.0000	
 51.0611	  78.2951	   0.0000	
 52.1627	  88.9725	   0.0000	
 48.9674	  86.0668	   0.0000	
 48.5322	  87.5825	   0.0000	
 41.4803	  95.2499	   0.0000	
 40.0229	  58.6533	   0.0000	
 43.9922	  64.0326	   0.0000	
 39.4396	  65.8520	   0.0000	
 44.2604	  67.9729	   0.0000	
 37.7123	  66.6782	   0.0000	
 37.8982	  68.4642	   0.0000	
 37.7239	  70.7347	   0.0000	
 40.1558	  72.8969	   0.0000	
 41.6571	  75.3311	   0.0000	
 41.8013	  77.8615	   0.0000	
 43.9635	  80.2786	   0.0000	
 44.8771	  81.7201	   0.0000	
 45.0697	  81.5201	   0.0000	
 51.0267	  83.3846	   0.0000	
 54.4693	  83.4582	   0.0000	
 45.1643	  83.2010	   0.0000	
 52.1195	  90.2130	   0.0000	
 49.0985	  87.1265	   0.0000	
 41.1820	  92.5311	   0.0000	
 39.1635	  59.1016	   0.0000	
 40.1184	  65.8497	   0.0000	
 40.7649	  64.2581	   0.0000	
 41.7378	  68.8223	   0.0000	
 36.4430	  67.9144	   0.0000	
 36.4472	  69.8628	   0.0000	
 36.7451	  71.6346	   0.0000	
 38.7347	  74.2678	   0.0000	
 40.0871	  76.9048	   0.0000	
 40.6447	  78.5176	   0.0000	
 42.5527	  79.6191	   0.0000	
 43.6176	  81.2606	   0.0000	
 45.3478	  82.6125	   0.0000	
 48.3184	  80.3450	   0.0000	
 52.8811	  82.2313	   0.0000	
 50.3133	  85.5967	   0.0000	
 42.8777	  83.9237	   0.0000	
 53.0871	  89.7395	   0.0000	
 44.2359	  91.0604	   0.0000	
 35.5575	  61.4907	   0.0000	
 42.2130	  63.7749	   0.0000	
 37.7035	  63.7994	   0.0000	
 39.6987	  68.3461	   0.0000	
 34.8347	  67.8703	   0.0000	
 35.2317	  69.9700	   0.0000	
 35.5512	  71.5664	   0.0000	
 37.1078	  73.8276	   0.0000	
 38.7564	  76.0078	   0.0000	
 38.9227	  78.4474	   0.0000	
 42.2208	  80.7453	   0.0000	
 42.2325	  80.7580	   0.0000	
 44.2859	  82.3784	   0.0000	
 49.2370	  81.5207	   0.0000	
 49.4174	  80.0677	   0.0000	
 49.3161	  85.6258	   0.0000	
 47.8147	  88.1137	   0.0000	
 42.3868	  86.7838	   0.0000	
 49.9192	  93.6239	   0.0000	
 39.8684	  60.8122	   0.0000	
 38.5619	  64.4382	   0.0000	
 35.4028	  65.5924	   0.0000	
 36.7956	  70.2299	   0.0000	
 33.3414	  70.4663	   0.0000	
 34.1749	  72.1605	   0.0000	
 34.2394	  73.9118	   0.0000	
 35.7387	  76.1039	   0.0000	
 36.7531	  78.8815	   0.0000	
 36.0027	  82.5425	   0.0000	
 40.1736	  85.9011	   0.0000	
 42.3768	  87.4581	   0.0000	
 42.7687	  86.8382	   0.0000	
 48.0325	  86.0885	   0.0000	
 50.3907	  86.5511	   0.0000	
 44.6874	  89.1224	   0.0000	
 45.8376	  94.8168	   0.0000	
 49.5791	  92.8416	   0.0000	
 38.0329	  92.2341	   0.0000	
 36.0272	  57.5539	   0.0000	
 34.0320	  59.9499	   0.0000	
 32.1490	  62.4853	   0.0000	
 33.8514	  68.2158	   0.0000	
 31.7494	  69.6787	   0.0000	
 32.8693	  71.9971	   0.0000	
 32.1414	  74.4550	   0.0000	
 33.4349	  77.9423	   0.0000	
 33.2231	  82.3046	   0.0000	
 36.8656	  81.3911	   0.0000	
 37.7688	  79.9252	   0.0000	
 40.4752	  82.1991	   0.0000	
 43.6245	  83.8706	   0.0000	
 46.8787	  81.4003	   0.0000	
 47.8829	  83.3212	   0.0000	
 45.9706	  87.9894	   0.0000	
 39.9827	  90.8519	   0.0000	
 50.4526	  87.3904	   0.0000	
 51.9644	  80.3497	   0.0000	
 31.3106	  60.5739	   0.0000	
 28.9353	  63.0730	   0.0000	
 27.5780	  66.5347	   0.0000	
 31.2245	  70.6066	   0.0000	
 29.3878	  71.8225	   0.0000	
 29.6839	  75.5211	   0.0000	
 29.4473	  78.2514	   0.0000	
 28.9297	  81.7054	   0.0000	
 34.7194	  81.0370	   0.0000	
 34.4456	  82.0299	   0.0000	
 39.8127	  85.0936	   0.0000	
 37.1166	  82.8372	   0.0000	
 41.4380	  84.9597	   0.0000	
 47.4998	  84.0214	   0.0000	
 43.2902	  86.8121	   0.0000	
 42.6510	  93.5065	   0.0000	
 41.6563	  97.5598	   0.0000	
 47.3446	  89.4107	   0.0000	
 57.8913	  80.1775	   0.0000	
 25.9856	  58.2901	   0.0000	
 22.3040	  64.0959	   0.0000	
 26.9672	  67.4587	   0.0000	
 28.4030	  71.4581	   0.0000	
 25.3398	  73.7887	   0.0000	
 26.9939	  76.8017	   0.0000	
 26.3177	  78.5930	   0.0000	
 32.5907	  76.1644	   0.0000	
 34.4540	  75.4206	   0.0000	
 26.8245	  81.8699	   0.0000	
 35.0936	  88.7048	   0.0000	
 39.7102	  92.3339	   0.0000	
 39.3112	  90.4043	   0.0000	
 43.0458	  91.7231	   0.0000	
 42.3865	  98.2971	   0.0000	
 34.9782	 104.5399	   0.0000	
 40.4934	 104.0821	   0.0000	
 54.9610	  92.6136	   0.0000	
 55.4076	  81.2025	   0.0000	
 20.0724	  53.6097	   0.0000	
 22.8902	  56.4407	   0.0000	
 11.4986	  66.7126	   0.0000	
 20.2566	  80.9630	   0.0000	
 22.4246	  86.5212	   0.0000	
 24.7532	  89.7437	   0.0000	
 32.4527	  88.4050	   0.0000	
 34.3206	  87.6263	   0.0000	
 24.2872	  94.8783	   0.0000	
 30.4442	  92.6857	   0.0000	
 26.2604	  89.6856	   0.0000	
 31.5870	  96.9205	   0.0000	
 42.3910	 101.6058	   0.0000	
 37.1169	  99.9006	   0.0000	
 34.1807	 106.8371	   0.0000	
 34.1088	 110.4357	   0.0000	
 49.5767	  98.8907	   0.0000	
 46.5447	  86.8671	   0.0000	
 66.1810	  73.4426	   0.0000	
  2.0331	  45.9294	   0.0000	
 -5.5161	  53.7650	   0.0000	
  9.7012	  62.6417	   0.0000	
 14.8281	  68.4143	   0.0000	
 19.3030	  72.2786	   0.0000	
 31.7155	  73.8914	   0.0000	
 33.7889	  73.9567	   0.0000	
 18.8177	  79.8013	   0.0000	
 27.8650	  79.9321	   0.0000	
 21.0648	  84.7423	   0.0000	
 31.1424	  91.5160	   0.0000	
 16.9642	  90.6502	   0.0000	
 27.4345	  99.3414	   0.0000	
 43.1610	 103.8400	   0.0000	
 24.4929	 113.0845	   0.0000	
 33.3906	 119.9593	   0.0000	
 32.9427	 114.4221	   0.0000	
 65.1335	 107.0813	   0.0000	
 73.8208	  88.3271	   0.0000	
 -7.1536	  62.5762	   0.0000	
  2.9418	  70.3579	   0.0000	
  7.9800	  75.9884	   0.0000	
 19.9072	  80.0592	   0.0000	
 29.8229	  84.5360	   0.0000	
 28.7810	  84.9108	   0.0000	
 11.2979	  93.6644	   0.0000	
 20.7100	  97.7135	   0.0000	
 16.5860	 104.5120	   0.0000	
 12.6725	 109.4723	   0.0000	
 15.3066	 113.9991	   0.0000	
 21.5614	 122.1000	   0.0000	
  2.8305	 127.0606	   0.0000	
 20.3110	 133.2641	   0.0000	
 14.7181	 147.0337	   0.0000	
  8.8202	 158.7951	   0.0000	
 25.7496	 153.1830	   0.0000	
 54.3448	 136.7344	   0.0000	
 67.1654	 111.4340	   0.0000	
 -2.1463	  28.3039	   0.0000	
  4.0699	  33.4974	   0.0000	
 12.2886	  39.3171	   0.0000	
 24.0081	  46.5350	   0.0000	
  0.5336	  55.3341	   0.0000	
  0.5212	  56.1225	   0.0000	
  8.2166	  60.3109	   0.0000	
  0.4975	  64.0849	   0.0000	
  6.2275	  67.4034	   0.0000	
  0.4188	  70.2706	   0.0000	
  5.7409	  73.1130	   0.0000	
  0.7174	  76.1462	   0.0000	
  6.6001	  79.5899	   0.0000	
 -0.9522	  82.0915	   0.0000	
  0.2219	  81.6032	   0.0000	
 -4.5592	  86.1562	   0.0000	
 -0.6904	  84.9854	   0.0000	
 21.7101	  80.9014	   0.0000	
 55.5615	  71.9932	   0.0000	
 -0.0000	  -0.0000	   0.0000	
  0.0000	   0.0000	   0.0000	
 -0.0000	   0.0000	   0.0000	
 -0.0000	   0.0000	   0.0000	
  0.0000	  -0.0000	   0.0000	
 -0.0000	   0.0000	   0.0000	
  0.0000	   0.0000	   0.0000	
  0.0000	  -0.0000	   0.0000	
 -0.0000	  -0.0000	   0.0000	
  0.0000	   0.0000	   0.0000	
  0.0000	   0.0000	   0.0000	
  0.0000	  -0.0000	   0.0000	
 -0.0000	   0.0000	   0.0000	
 -0.0000	   0.0000	   0.0000	
 -0.0000	  -0.0000	   0.0000	
 -0.0000	  -0.0000	   0.0000	
  0.0000	  -0.0000	   0.0000	
 -0.0000	  -0.0000	   0.0000	
  0.0000	   0.0000	   0.0000	
 50.0000	  50.0000	   0.0000	
 50.0000	  -0.0000	   0.0000	
 68.2472	  50.1092	   0.0000	
 49.9967	  15.6924	   0.0000	
 85.8294	  50.2155	   0.0000	
 49.0812	  31.3702	   0.0000	
 83.2940	  54.8888	   0.0000	
 50.5037	  47.4299	   0.0000	
 83.0261	  58.6076	   0.0000	
 51.1938	  63.5378	   0.0000	
 55.9117	  78.2884	   0.0000	
 47.6756	  77.2762	   0.0000	
 50.0805	  79.6480	   0.0000	
 78.9335	 104.9811	   0.0000	
 46.5569	  77.7621	   0.0000	
 66.1295	  92.6946	   0.0000	
 44.9152	  74.7860	   0.0000	
 58.5844	  84.7306	   0.0000	
 49.3182	  68.7847	   0.0000	
 53.4919	  79.1840	   0.0000	
 47.8368	  66.9391	   0.0000	
 52.9671	  77.0027	   0.0000	
 44.6472	  65.6912	   0.0000	
 56.6852	  76.9964	   0.0000	
 38.9869	  65.2044	   0.0000	
 64.2662	  78.4112	   0.0000	
 41.9944	  59.4845	   0.0000	
 49.0557	  68.2387	   0.0000	
 35.0870	  57.4455	   0.0000	
 61.6537	  70.5440	   0.0000	
 27.2129	  55.1956	   0.0000	
 68.0643	  69.0806	   0.0000	
 17.6436	  52.3343	   0.0000	
 68.5790	  63.5986	   0.0000	
 19.9968	  40.3618	   0.0000	
 78.7262	  61.1817	   0.0000	
-22.9681	  51.9614	   0.0000	
114.4085	  72.1474	   0.0000	
 -8.5362	  22.2528	   0.0000	
102.9915	  46.5384	   0.0000	
 -0.0000	   0.0000	   0.0000	
 -0.0000	  -0.0000	   0.0000	
 50.3566	  50.0000	   0.0000	
 85.2423	 152.7992	   0.0000	
 49.2144	  49.1562	   0.0000	
 51.0066	 136.3205	   0.0000	
 47.0492	  48.6013	   0.0000	
 36.0369	 121.3910	   0.0000	
 46.4537	  47.2326	   0.0000	
 26.8120	 108.8978	   0.0000	
 44.0109	  46.8578	   0.0000	
 27.2749	 103.1947	   0.0000	
 43.1456	  45.8614	   0.0000	
 26.9196	  98.5587	   0.0000	
 43.8258	  45.0681	   0.0000	
 27.0292	  94.9537	   0.0000	
 44.5620	  43.9067	   0.0000	
 27.6063	  91.4093	   0.0000	
 43.6129	  43.3320	   0.0000	
 30.2262	  88.4022	   0.0000	
 40.0706	  43.7506	   0.0000	
 33.7673	  85.2341	   0.0000	
 40.3355	  42.2877	   0.0000	
 38.4875	  82.4751	   0.0000	
 46.7141	  38.4377	   0.0000	
 28.2840	  74.0183	   0.0000	
 41.3728	  38.7362	   0.0000	
 38.6384	  73.0433	   0.0000	
 40.6472	  35.9173	   0.0000	
 41.3844	  67.7662	   0.0000	
 38.3181	  32.1477	   0.0000	
 42.5778	  61.9327	   0.0000	
 41.3833	  26.3563	   0.0000	
 48.0074	  54.0985	   0.0000	
 21.0693	  26.0680	   0.0000	
 68.8476	  49.8546	   0.0000	
 18.0669	  17.9224	   0.0000	
 68.9162	  36.6622	   0.0000	
 34.7367	   2.3908	   0.0000	
 60.0481	  20.2655	   0.0000	
 24.1239	   0.5600	   0.0000	
 -0.8551	  -1.2644	   0.0000	
 -0.0000	   0.0000	   0.0000	
 -0.0000	  -0.0000	   0.0000	
 58.3247	  50.0000	   0.0000	
-42.3696	  68.8227	   0.0000	
 53.1908	  50.8318	   0.0000	
-11.0917	  70.1358	   0.0000	
 50.4953	  51.1853	   0.0000	
  3.5225	  69.9297	   0.0000	
 47.6675	  51.8757	   0.0000	
 10.8847	  69.3205	   0.0000	
 47.6796	  52.1110	   0.0000	
 12.8923	  67.9403	   0.0000	
 48.4781	  52.4333	   0.0000	
 13.7171	  66.6485	   0.0000	
 47.8037	  53.1037	   0.0000	
 14.9309	  64.9401	   0.0000	
 47.1223	  52.9987	   0.0000	
 16.9620	  62.9869	   0.0000	
 46.8238	  53.6844	   0.0000	
 18.1628	  61.2040	   0.0000	
 45.7974	  54.2598	   0.0000	
 21.1448	  60.0938	   0.0000	
 52.0421	  53.8540	   0.0000	
 15.5055	  58.1894	   0.0000	
 51.9148	  54.1107	   0.0000	
 17.4320	  55.1246	   0.0000	
 55.4558	  54.0319	   0.0000	
 18.8756	  52.0711	   0.0000	
 57.4185	  54.4737	   0.0000	
 10.7351	  48.0309	   0.0000	
 61.0893	  54.3778	   0.0000	
 15.3196	  44.9415	   0.0000	
 61.0602	  51.2726	   0.0000	
 20.9181	  38.4378	   0.0000	
 59.1408	  49.7360	   0.0000	
 24.6826	  33.9286	   0.0000	
 63.8796	  49.5012	   0.0000	
 27.8259	  29.8776	   0.0000	
 60.5563	  48.0587	   0.0000	
  2.5377	  29.7331	   0.0000	
 37.6696	  47.1193	   0.0000	
  3.4435	  35.0256	   0.0000	
 27.2390	  44.2272	   0.0000	
 -0.1653	  37.3687	   0.0000	
 44.1461	  50.0000	   0.0000	
 11.4732	  55.1609	   0.0000	
 46.4919	  51.1806	   0.0000	
 -2.2594	  60.2322	   0.0000	
 45.1845	  51.5594	   0.0000	
  1.3488	  60.8186	   0.0000	
 43.5282	  51.6522	   0.0000	
  5.2635	  60.2179	   0.0000	
 43.2252	  52.0899	   0.0000	
  6.5877	  60.0965	   0.0000	
 43.3746	  52.6467	   0.0000	
  7.5374	  60.0316	   0.0000	
 41.7902	  52.8076	   0.0000	
 10.1891	  59.2848	   0.0000	
 42.3966	  53.7031	   0.0000	
  8.7249	  60.1918	   0.0000	
 43.4475	  54.2628	   0.0000	
 11.3439	  59.3402	   0.0000	
 42.9594	  55.0432	   0.0000	
 13.2732	  59.0056	   0.0000	
 44.1782	  56.4070	   0.0000	
 14.3823	  59.2402	   0.0000	
 44.9493	  57.4187	   0.0000	
 11.8508	  59.3656	   0.0000	
 46.7658	  59.3942	   0.0000	
  6.1991	  61.2238	   0.0000	
 47.5364	  61.5527	   0.0000	
 11.3165	  61.3636	   0.0000	
 48.0137	  63.0365	   0.0000	
  9.9714	  61.3959	   0.0000	
 55.5312	  68.0208	   0.0000	
  6.6175	  63.0048	   0.0000	
 52.3063	  70.1564	   0.0000	
 10.5213	  61.8446	   0.0000	
 50.6133	  73.0848	   0.0000	
 15.0158	  60.2943	   0.0000	
 51.3307	  76.2306	   0.0000	
 19.8159	  57.7410	   0.0000	
 43.9185	  80.2277	   0.0000	
 19.3669	  63.6570	   0.0000	
 24.2745	  79.7628	   0.0000	
 21.0031	  67.7278	   0.0000	
 46.2864	  50.0000	   0.0000	
 -0.8230	  45.8048	   0.0000	
 45.7707	  49.7257	   0.0000	
  2.6755	  45.0584	   0.0000	
 44.7535	  49.5568	   0.0000	
  5.3209	  44.3832	   0.0000	
 43.3108	  49.1479	   0.0000	
  8.1114	  43.6833	   0.0000	
 43.3181	  49.4144	   0.0000	
  6.6470	  45.4633	   0.0000	
 43.2992	  49.6774	   0.0000	
  5.6028	  47.4211	   0.0000	
 42.0549	  49.2554	   0.0000	
  7.1689	  47.6889	   0.0000	
 41.9596	  49.5500	   0.0000	
  8.2273	  48.6562	   0.0000	
 41.2829	  49.5792	   0.0000	
 10.1061	  48.9400	   0.0000	
 40.3857	  49.2560	   0.0000	
 11.1555	  49.4741	   0.0000	
 42.2430	  50.5262	   0.0000	
 10.0451	  51.1837	   0.0000	
 38.0137	  49.1932	   0.0000	
 15.1387	  49.7536	   0.0000	
 39.5842	  50.8557	   0.0000	
 14.9916	  50.7851	   0.0000	
 40.7297	  52.1744	   0.0000	
 12.5529	  52.9461	   0.0000	
 40.4803	  54.0041	   0.0000	
 14.6505	  54.8298	   0.0000	
 39.9503	  55.0601	   0.0000	
 13.9232	  56.1815	   0.0000	
 39.5490	  57.7573	   0.0000	
 14.2512	  58.5295	   0.0000	
 40.7349	  62.7003	   0.0000	
 14.0979	  61.4239	   0.0000	
 36.7725	  65.1614	   0.0000	
 20.9953	  61.1487	   0.0000	
 42.4086	  71.2773	   0.0000	
 17.6145	  64.1153	   0.0000	
 25.8714	  69.7724	   0.0000	
 36.8932	  58.6871	   0.0000	
 52.0343	  50.0000	   0.0000	
  0.9237	  31.3183	   0.0000	
 49.2145	  49.4538	   0.0000	
  2.3986	  32.6454	   0.0000	
 46.1730	  48.8559	   0.0000	
  3.8333	  33.9867	   0.0000	
 44.9827	  48.7305	   0.0000	
  5.1739	  35.3213	   0.0000	
 45.3696	  49.1715	   0.0000	
  7.4245	  36.3399	   0.0000	
 45.5750	  49.6056	   0.0000	
  8.0263	  38.2695	   0.0000	
 42.5747	  47.7363	   0.0000	
  9.3235	  39.1162	   0.0000	
 41.9576	  47.7452	   0.0000	
 10.3581	  39.4902	   0.0000	
 41.8424	  48.1136	   0.0000	
 11.0392	  40.3653	   0.0000	
 40.9177	  48.1728	   0.0000	
 12.1495	  41.7875	   0.0000	
 40.5127	  48.3266	   0.0000	
 13.9480	  42.7297	   0.0000	
 39.6887	  48.2782	   0.0000	
 14.8927	  43.9210	   0.0000	
 39.4977	  48.8291	   0.0000	
 15.5423	  45.6387	   0.0000	
 39.0710	  49.5114	   0.0000	
 15.6260	  47.5700	   0.0000	
 38.8122	  48.7224	   0.0000	
 15.8810	  47.6350	   0.0000	
 38.2974	  49.3009	   0.0000	
 16.0780	  48.5597	   0.0000	
 35.0157	  48.6354	   0.0000	
 24.1761	  46.4314	   0.0000	
 38.0883	  52.4737	   0.0000	
 17.1693	  53.8091	   0.0000	
 34.3654	  51.8265	   0.0000	
 21.8301	  53.4387	   0.0000	
 31.3565	  52.4879	   0.0000	
 22.5637	  56.1431	   0.0000	
 33.0466	  57.8949	   0.0000	
 21.6045	  58.4884	   0.0000	
  0.0000	   0.0000	   0.0000	
  0.0000	   0.0000	   0.0000	
 -0.0000	   0.0000	   0.0000	
  0.0000	  -0.0000	   0.0000	
 -0.0000	   0.0000	   0.0000	
  0.0000	   0.0000	   0.0000	
 -0.0000	   0.0000	   0.0000	
 -0.0000	  -0.0000	   0.0000	
 -0.0000	  -0.0000	   0.0000	
 -0.0000	   0.0000	   0.0000	
 -0.0000	  -0.0000	   0.0000	
 -0.0000	  -0.0000	   0.0000	
 -0.0000	   0.0000	   0.0000	
 -0.0000	  -0.0000	   0.0000	