# vtk DataFile Version 3.0 
Results 
ASCII 
DATASET UNSTRUCTURED_GRID 
POINTS 	    1085 float 
  0.0000	   0.6667	  0.0000	 
  0.0000	   1.3333	  0.0000	 
  0.0000	   2.0000	  0.0000	 
  0.0000	   2.6667	  0.0000	 
  0.0000	   3.3333	  0.0000	 
  0.0000	   4.0000	  0.0000	 
  0.0000	   4.6667	  0.0000	 
  0.0000	   5.3333	  0.0000	 
  0.0000	   6.0000	  0.0000	 
  0.0000	   6.6667	  0.0000	 
  0.0000	   7.3333	  0.0000	 
  0.0000	   8.0000	  0.0000	 
  0.0000	   8.6667	  0.0000	 
  0.0000	   9.3333	  0.0000	 
  0.0000	  10.0000	  0.0000	 
  0.0000	  10.6667	  0.0000	 
  0.0000	  11.3333	  0.0000	 
  0.2500	   0.9383	  0.0000	 
  0.2500	   1.5710	  0.0000	 
  0.2500	   2.2037	  0.0000	 
  0.2500	   2.8364	  0.0000	 
  0.2500	   3.4691	  0.0000	 
  0.2500	   4.1019	  0.0000	 
  0.2500	   4.7346	  0.0000	 
  0.2500	   5.3673	  0.0000	 
  0.2500	   6.0000	  0.0000	 
  0.2500	   6.6327	  0.0000	 
  0.2500	   7.2654	  0.0000	 
  0.2500	   7.8981	  0.0000	 
  0.2500	   8.5309	  0.0000	 
  0.2500	   9.1636	  0.0000	 
  0.2500	   9.7963	  0.0000	 
  0.2500	  10.4290	  0.0000	 
  0.2500	  11.0617	  0.0000	 
  0.5000	   1.2099	  0.0000	 
  0.5000	   1.8086	  0.0000	 
  0.5000	   2.4074	  0.0000	 
  0.5000	   3.0062	  0.0000	 
  0.5000	   3.6049	  0.0000	 
  0.5000	   4.2037	  0.0000	 
  0.5000	   4.8025	  0.0000	 
  0.5000	   5.4012	  0.0000	 
  0.5000	   6.0000	  0.0000	 
  0.5000	   6.5988	  0.0000	 
  0.5000	   7.1975	  0.0000	 
  0.5000	   7.7963	  0.0000	 
  0.5000	   8.3951	  0.0000	 
  0.5000	   8.9938	  0.0000	 
  0.5000	   9.5926	  0.0000	 
  0.5000	  10.1914	  0.0000	 
  0.5000	  10.7901	  0.0000	 
  0.7500	   1.4815	  0.0000	 
  0.7500	   2.0463	  0.0000	 
  0.7500	   2.6111	  0.0000	 
  0.7500	   3.1759	  0.0000	 
  0.7500	   3.7407	  0.0000	 
  0.7500	   4.3056	  0.0000	 
  0.7500	   4.8704	  0.0000	 
  0.7500	   5.4352	  0.0000	 
  0.7500	   6.0000	  0.0000	 
  0.7500	   6.5648	  0.0000	 
  0.7500	   7.1296	  0.0000	 
  0.7500	   7.6944	  0.0000	 
  0.7500	   8.2593	  0.0000	 
  0.7500	   8.8241	  0.0000	 
  0.7500	   9.3889	  0.0000	 
  0.7500	   9.9537	  0.0000	 
  0.7500	  10.5185	  0.0000	 
  1.0000	   1.7531	  0.0000	 
  1.0000	   2.2840	  0.0000	 
  1.0000	   2.8148	  0.0000	 
  1.0000	   3.3457	  0.0000	 
  1.0000	   3.8765	  0.0000	 
  1.0000	   4.4074	  0.0000	 
  1.0000	   4.9383	  0.0000	 
  1.0000	   5.4691	  0.0000	 
  1.0000	   6.0000	  0.0000	 
  1.0000	   6.5309	  0.0000	 
  1.0000	   7.0617	  0.0000	 
  1.0000	   7.5926	  0.0000	 
  1.0000	   8.1235	  0.0000	 
  1.0000	   8.6543	  0.0000	 
  1.0000	   9.1852	  0.0000	 
  1.0000	   9.7160	  0.0000	 
  1.0000	  10.2469	  0.0000	 
  1.2500	   2.0247	  0.0000	 
  1.2500	   2.5216	  0.0000	 
  1.2500	   3.0185	  0.0000	 
  1.2500	   3.5154	  0.0000	 
  1.2500	   4.0123	  0.0000	 
  1.2500	   4.5093	  0.0000	 
  1.2500	   5.0062	  0.0000	 
  1.2500	   5.5031	  0.0000	 
  1.2500	   6.0000	  0.0000	 
  1.2500	   6.4969	  0.0000	 
  1.2500	   6.9938	  0.0000	 
  1.2500	   7.4907	  0.0000	 
  1.2500	   7.9877	  0.0000	 
  1.2500	   8.4846	  0.0000	 
  1.2500	   8.9815	  0.0000	 
  1.2500	   9.4784	  0.0000	 
  1.2500	   9.9753	  0.0000	 
  1.5000	   2.2963	  0.0000	 
  1.5000	   2.7593	  0.0000	 
  1.5000	   3.2222	  0.0000	 
  1.5000	   3.6852	  0.0000	 
  1.5000	   4.1481	  0.0000	 
  1.5000	   4.6111	  0.0000	 
  1.5000	   5.0741	  0.0000	 
  1.5000	   5.5370	  0.0000	 
  1.5000	   6.0000	  0.0000	 
  1.5000	   6.4630	  0.0000	 
  1.5000	   6.9259	  0.0000	 
  1.5000	   7.3889	  0.0000	 
  1.5000	   7.8519	  0.0000	 
  1.5000	   8.3148	  0.0000	 
  1.5000	   8.7778	  0.0000	 
  1.5000	   9.2407	  0.0000	 
  1.5000	   9.7037	  0.0000	 
  1.7500	   2.5679	  0.0000	 
  1.7500	   2.9969	  0.0000	 
  1.7500	   3.4259	  0.0000	 
  1.7500	   3.8549	  0.0000	 
  1.7500	   4.2840	  0.0000	 
  1.7500	   4.7130	  0.0000	 
  1.7500	   5.1420	  0.0000	 
  1.7500	   5.5710	  0.0000	 
  1.7500	   6.0000	  0.0000	 
  1.7500	   6.4290	  0.0000	 
  1.7500	   6.8580	  0.0000	 
  1.7500	   7.2870	  0.0000	 
  1.7500	   7.7160	  0.0000	 
  1.7500	   8.1451	  0.0000	 
  1.7500	   8.5741	  0.0000	 
  1.7500	   9.0031	  0.0000	 
  1.7500	   9.4321	  0.0000	 
  2.0000	   2.8395	  0.0000	 
  2.0000	   3.2346	  0.0000	 
  2.0000	   3.6296	  0.0000	 
  2.0000	   4.0247	  0.0000	 
  2.0000	   4.4198	  0.0000	 
  2.0000	   4.8148	  0.0000	 
  2.0000	   5.2099	  0.0000	 
  2.0000	   5.6049	  0.0000	 
  2.0000	   6.0000	  0.0000	 
  2.0000	   6.3951	  0.0000	 
  2.0000	   6.7901	  0.0000	 
  2.0000	   7.1852	  0.0000	 
  2.0000	   7.5802	  0.0000	 
  2.0000	   7.9753	  0.0000	 
  2.0000	   8.3704	  0.0000	 
  2.0000	   8.7654	  0.0000	 
  2.0000	   9.1605	  0.0000	 
  2.2500	   3.1111	  0.0000	 
  2.2500	   3.4722	  0.0000	 
  2.2500	   3.8333	  0.0000	 
  2.2500	   4.1944	  0.0000	 
  2.2500	   4.5556	  0.0000	 
  2.2500	   4.9167	  0.0000	 
  2.2500	   5.2778	  0.0000	 
  2.2500	   5.6389	  0.0000	 
  2.2500	   6.0000	  0.0000	 
  2.2500	   6.3611	  0.0000	 
  2.2500	   6.7222	  0.0000	 
  2.2500	   7.0833	  0.0000	 
  2.2500	   7.4444	  0.0000	 
  2.2500	   7.8056	  0.0000	 
  2.2500	   8.1667	  0.0000	 
  2.2500	   8.5278	  0.0000	 
  2.2500	   8.8889	  0.0000	 
  2.5000	   3.3827	  0.0000	 
  2.5000	   3.7099	  0.0000	 
  2.5000	   4.0370	  0.0000	 
  2.5000	   4.3642	  0.0000	 
  2.5000	   4.6914	  0.0000	 
  2.5000	   5.0185	  0.0000	 
  2.5000	   5.3457	  0.0000	 
  2.5000	   5.6728	  0.0000	 
  2.5000	   6.0000	  0.0000	 
  2.5000	   6.3272	  0.0000	 
  2.5000	   6.6543	  0.0000	 
  2.5000	   6.9815	  0.0000	 
  2.5000	   7.3086	  0.0000	 
  2.5000	   7.6358	  0.0000	 
  2.5000	   7.9630	  0.0000	 
  2.5000	   8.2901	  0.0000	 
  2.5000	   8.6173	  0.0000	 
  2.7500	   3.6543	  0.0000	 
  2.7500	   3.9475	  0.0000	 
  2.7500	   4.2407	  0.0000	 
  2.7500	   4.5340	  0.0000	 
  2.7500	   4.8272	  0.0000	 
  2.7500	   5.1204	  0.0000	 
  2.7500	   5.4136	  0.0000	 
  2.7500	   5.7068	  0.0000	 
  2.7500	   6.0000	  0.0000	 
  2.7500	   6.2932	  0.0000	 
  2.7500	   6.5864	  0.0000	 
  2.7500	   6.8796	  0.0000	 
  2.7500	   7.1728	  0.0000	 
  2.7500	   7.4660	  0.0000	 
  2.7500	   7.7593	  0.0000	 
  2.7500	   8.0525	  0.0000	 
  2.7500	   8.3457	  0.0000	 
  3.0000	   3.9259	  0.0000	 
  3.0000	   4.1852	  0.0000	 
  3.0000	   4.4444	  0.0000	 
  3.0000	   4.7037	  0.0000	 
  3.0000	   4.9630	  0.0000	 
  3.0000	   5.2222	  0.0000	 
  3.0000	   5.4815	  0.0000	 
  3.0000	   5.7407	  0.0000	 
  3.0000	   6.0000	  0.0000	 
  3.0000	   6.2593	  0.0000	 
  3.0000	   6.5185	  0.0000	 
  3.0000	   6.7778	  0.0000	 
  3.0000	   7.0370	  0.0000	 
  3.0000	   7.2963	  0.0000	 
  3.0000	   7.5556	  0.0000	 
  3.0000	   7.8148	  0.0000	 
  3.0000	   8.0741	  0.0000	 
  3.2500	   4.1975	  0.0000	 
  3.2500	   4.4228	  0.0000	 
  3.2500	   4.6481	  0.0000	 
  3.2500	   4.8735	  0.0000	 
  3.2500	   5.0988	  0.0000	 
  3.2500	   5.3241	  0.0000	 
  3.2500	   5.5494	  0.0000	 
  3.2500	   5.7747	  0.0000	 
  3.2500	   6.0000	  0.0000	 
  3.2500	   6.2253	  0.0000	 
  3.2500	   6.4506	  0.0000	 
  3.2500	   6.6759	  0.0000	 
  3.2500	   6.9012	  0.0000	 
  3.2500	   7.1265	  0.0000	 
  3.2500	   7.3519	  0.0000	 
  3.2500	   7.5772	  0.0000	 
  3.2500	   7.8025	  0.0000	 
  3.5000	   4.4691	  0.0000	 
  3.5000	   4.6605	  0.0000	 
  3.5000	   4.8519	  0.0000	 
  3.5000	   5.0432	  0.0000	 
  3.5000	   5.2346	  0.0000	 
  3.5000	   5.4259	  0.0000	 
  3.5000	   5.6173	  0.0000	 
  3.5000	   5.8086	  0.0000	 
  3.5000	   6.0000	  0.0000	 
  3.5000	   6.1914	  0.0000	 
  3.5000	   6.3827	  0.0000	 
  3.5000	   6.5741	  0.0000	 
  3.5000	   6.7654	  0.0000	 
  3.5000	   6.9568	  0.0000	 
  3.5000	   7.1481	  0.0000	 
  3.5000	   7.3395	  0.0000	 
  3.5000	   7.5309	  0.0000	 
  3.7500	   4.7407	  0.0000	 
  3.7500	   4.8981	  0.0000	 
  3.7500	   5.0556	  0.0000	 
  3.7500	   5.2130	  0.0000	 
  3.7500	   5.3704	  0.0000	 
  3.7500	   5.5278	  0.0000	 
  3.7500	   5.6852	  0.0000	 
  3.7500	   5.8426	  0.0000	 
  3.7500	   6.0000	  0.0000	 
  3.7500	   6.1574	  0.0000	 
  3.7500	   6.3148	  0.0000	 
  3.7500	   6.4722	  0.0000	 
  3.7500	   6.6296	  0.0000	 
  3.7500	   6.7870	  0.0000	 
  3.7500	   6.9444	  0.0000	 
  3.7500	   7.1019	  0.0000	 
  3.7500	   7.2593	  0.0000	 
  4.0000	   5.0123	  0.0000	 
  4.0000	   5.1358	  0.0000	 
  4.0000	   5.2593	  0.0000	 
  4.0000	   5.3827	  0.0000	 
  4.0000	   5.5062	  0.0000	 
  4.0000	   5.6296	  0.0000	 
  4.0000	   5.7531	  0.0000	 
  4.0000	   5.8765	  0.0000	 
  4.0000	   6.0000	  0.0000	 
  4.0000	   6.1235	  0.0000	 
  4.0000	   6.2469	  0.0000	 
  4.0000	   6.3704	  0.0000	 
  4.0000	   6.4938	  0.0000	 
  4.0000	   6.6173	  0.0000	 
  4.0000	   6.7407	  0.0000	 
  4.0000	   6.8642	  0.0000	 
  4.0000	   6.9877	  0.0000	 
  4.2500	   5.2840	  0.0000	 
  4.2500	   5.3735	  0.0000	 
  4.2500	   5.4630	  0.0000	 
  4.2500	   5.5525	  0.0000	 
  4.2500	   5.6420	  0.0000	 
  4.2500	   5.7315	  0.0000	 
  4.2500	   5.8210	  0.0000	 
  4.2500	   5.9105	  0.0000	 
  4.2500	   6.0000	  0.0000	 
  4.2500	   6.0895	  0.0000	 
  4.2500	   6.1790	  0.0000	 
  4.2500	   6.2685	  0.0000	 
  4.2500	   6.3580	  0.0000	 
  4.2500	   6.4475	  0.0000	 
  4.2500	   6.5370	  0.0000	 
  4.2500	   6.6265	  0.0000	 
  4.2500	   6.7160	  0.0000	 
  4.5000	   5.5556	  0.0000	 
  4.5000	   5.6111	  0.0000	 
  4.5000	   5.6667	  0.0000	 
  4.5000	   5.7222	  0.0000	 
  4.5000	   5.7778	  0.0000	 
  4.5000	   5.8333	  0.0000	 
  4.5000	   5.8889	  0.0000	 
  4.5000	   5.9444	  0.0000	 
  4.5000	   6.0000	  0.0000	 
  4.5000	   6.0556	  0.0000	 
  4.5000	   6.1111	  0.0000	 
  4.5000	   6.1667	  0.0000	 
  4.5000	   6.2222	  0.0000	 
  4.5000	   6.2778	  0.0000	 
  4.5000	   6.3333	  0.0000	 
  4.5000	   6.3889	  0.0000	 
  4.5000	   6.4444	  0.0000	 
  0.0000	   0.0000	  0.0000	 
  0.0000	  12.0000	  0.0000	 
  0.2500	   0.3056	  0.0000	 
  0.2500	  11.6944	  0.0000	 
  0.5000	   0.6111	  0.0000	 
  0.5000	  11.3889	  0.0000	 
  0.7500	   0.9167	  0.0000	 
[...]
POINT_DATA 	    1085 
VECTORS U float 
 51.3000	  -0.0000	   0.0000	
 51.3000	   0.0000	   0.0000	
 51.3000	  -0.0000	   0.0000	
 51.3000	   0.0000	   0.0000	
 51.3000	   0.0000	   0.0000	
 51.3000	   0.0000	   0.0000	
 51.3000	   0.0000	   0.0000	
 51.3000	  -0.0000	   0.0000	
 51.3000	   0.0000	   0.0000	
 51.3000	  -0.0000	   0.0000	
 51.3000	   0.0000	   0.0000	
 51.3000	  -0.0000	   0.0000	
 51.3000	  -0.0000	   0.0000	
 51.3000	   0.0000	   0.0000	
 51.3000	  -0.0000	   0.0000	
 51.3000	   0.0000	   0.0000	
 51.3000	  -0.0000	   0.0000	
 45.9063	  12.1939	   0.0000	
 53.0532	   1.6711	   0.0000	
 50.3696	  13.4183	   0.0000	
 51.4549	  -0.0467	   0.0000	
 51.1563	   6.8573	   0.0000	
 51.3292	   6.6597	   0.0000	
 51.5174	   5.8647	   0.0000	
 51.2084	   5.7774	   0.0000	
 51.7404	   4.9019	   0.0000	
 51.2782	   3.7487	   0.0000	
 51.4407	   3.6701	   0.0000	
 51.4089	   2.8168	   0.0000	
 51.4409	   1.8562	   0.0000	
 51.2812	   1.2619	   0.0000	
 51.3440	   0.5988	   0.0000	
 51.2616	   0.8927	   0.0000	
 51.3815	   0.1437	   0.0000	
 55.4096	   8.7477	   0.0000	
 42.6874	  16.5947	   0.0000	
 61.4534	   5.0009	   0.0000	
 46.0283	   8.5115	   0.0000	
 51.1853	   8.0572	   0.0000	
 51.4658	   7.9634	   0.0000	
 51.5197	   8.3036	   0.0000	
 51.3720	   7.8088	   0.0000	
 51.9352	   7.8657	   0.0000	
 51.8137	   7.0051	   0.0000	
 51.5165	   5.5961	   0.0000	
 51.8643	   5.2776	   0.0000	
 52.0074	   3.6612	   0.0000	
 51.8039	   2.6893	   0.0000	
 51.7434	   1.7493	   0.0000	
 51.1360	   1.4292	   0.0000	
 51.8129	   0.8279	   0.0000	
 49.0779	  20.9315	   0.0000	
 55.5556	   3.8946	   0.0000	
 53.6635	  10.4338	   0.0000	
 48.7444	   6.4332	   0.0000	
 51.7250	   3.2737	   0.0000	
 51.5353	   1.9737	   0.0000	
 51.9442	   0.8411	   0.0000	
 51.3991	   0.2438	   0.0000	
 51.4713	   1.2534	   0.0000	
 51.9124	   2.8132	   0.0000	
 51.9348	   3.0834	   0.0000	
 51.7288	   3.2372	   0.0000	
 52.6239	   3.5101	   0.0000	
 52.1553	   3.8096	   0.0000	
 51.9348	   2.3938	   0.0000	
 51.5875	   2.4433	   0.0000	
 51.7645	   0.9990	   0.0000	
 58.0188	   5.8284	   0.0000	
 55.6026	   3.6244	   0.0000	
 51.8640	   7.2033	   0.0000	
 52.5432	  -0.2403	   0.0000	
 52.4286	  -1.5299	   0.0000	
 51.9391	  -2.8059	   0.0000	
 52.1745	  -2.5010	   0.0000	
 50.8813	  -1.8616	   0.0000	
 51.2323	  -1.1891	   0.0000	
 51.1665	  -0.5917	   0.0000	
 51.7829	   0.7762	   0.0000	
 51.4310	   1.3975	   0.0000	
 52.2804	   1.8253	   0.0000	
 51.5938	   2.8800	   0.0000	
 52.8385	   3.0333	   0.0000	
 51.5309	   2.8673	   0.0000	
 52.4048	   1.2028	   0.0000	
 58.8813	   1.5340	   0.0000	
 50.9307	   0.3872	   0.0000	
 54.8322	  -0.4713	   0.0000	
 52.9765	  -2.5485	   0.0000	
 53.0851	  -3.5283	   0.0000	
 51.6485	  -3.9989	   0.0000	
 51.8437	  -2.6142	   0.0000	
 50.5571	  -2.5962	   0.0000	
 50.7646	  -1.4549	   0.0000	
 50.8510	  -0.3897	   0.0000	
 51.1861	   0.0279	   0.0000	
 51.1629	   1.2379	   0.0000	
 51.8741	   1.3523	   0.0000	
 51.3737	   2.4035	   0.0000	
 52.5232	   1.8800	   0.0000	
 51.7111	   3.3168	   0.0000	
 53.3148	   1.2497	   0.0000	
 56.1407	  -2.2506	   0.0000	
 52.3791	 -10.0230	   0.0000	
 54.4350	  -5.6901	   0.0000	
 53.0396	  -5.8542	   0.0000	
 52.9384	  -5.0483	   0.0000	
 50.5606	  -4.2153	   0.0000	
 51.7683	  -2.7474	   0.0000	
 49.8181	  -1.9936	   0.0000	
 50.5010	  -1.2151	   0.0000	
 50.2670	  -0.7305	   0.0000	
 51.0387	   0.0976	   0.0000	
 50.5490	   0.5222	   0.0000	
 51.7406	   0.9091	   0.0000	
 51.0820	   1.3491	   0.0000	
 52.5435	   0.6291	   0.0000	
 51.2796	   1.7640	   0.0000	
 53.5842	  -0.0323	   0.0000	
 58.9256	  -3.0162	   0.0000	
 50.5198	  -9.7943	   0.0000	
 53.9949	  -5.2628	   0.0000	
 52.6603	  -5.9206	   0.0000	
 52.1987	  -5.0620	   0.0000	
 49.7910	  -5.5814	   0.0000	
 51.3109	  -3.4572	   0.0000	
 49.4394	  -4.0126	   0.0000	
 49.5023	  -2.0769	   0.0000	
 49.9172	  -0.1871	   0.0000	
 50.4597	   0.2877	   0.0000	
 50.3115	   1.6798	   0.0000	
 51.2994	   1.4454	   0.0000	
 51.1432	   2.3529	   0.0000	
 52.3673	   1.1241	   0.0000	
 51.3635	   2.4851	   0.0000	
 53.4321	  -0.4564	   0.0000	
 58.4026	   0.4325	   0.0000	
 49.4114	  -8.7351	   0.0000	
 53.6642	  -3.7678	   0.0000	
 51.8090	  -3.4243	   0.0000	
 52.2058	  -3.2285	   0.0000	
 48.4017	  -3.3892	   0.0000	
 51.6061	  -2.0069	   0.0000	
 48.2028	  -1.1835	   0.0000	
 49.4501	  -0.6719	   0.0000	
 48.8354	  -0.6688	   0.0000	
 50.2950	   0.3493	   0.0000	
 49.4230	   1.0304	   0.0000	
 51.4178	   1.1653	   0.0000	
 50.5522	   1.4863	   0.0000	
 52.5326	   1.1097	   0.0000	
 50.8999	   2.4696	   0.0000	
 54.0825	  -0.1024	   0.0000	
 60.0777	   1.4464	   0.0000	
 48.9521	 -11.2800	   0.0000	
 52.3471	  -6.1904	   0.0000	
 51.9083	  -6.7143	   0.0000	
 51.8239	  -6.1759	   0.0000	
 47.7485	  -8.1599	   0.0000	
 50.6803	  -4.5107	   0.0000	
 47.7806	  -5.1149	   0.0000	
 47.7270	  -2.5707	   0.0000	
 48.6353	   0.2364	   0.0000	
 49.3629	   0.6143	   0.0000	
 48.9823	   2.8479	   0.0000	
 50.8743	   2.0215	   0.0000	
 50.6867	   3.2238	   0.0000	
 51.7428	   2.1105	   0.0000	
 51.0727	   3.8680	   0.0000	
 53.7225	   0.5547	   0.0000	
 61.1812	   3.2451	   0.0000	
 47.3994	  -8.2137	   0.0000	
 52.0430	  -4.1986	   0.0000	
 50.8832	  -2.9182	   0.0000	
 52.6107	  -2.3311	   0.0000	
 45.1008	  -3.3226	   0.0000	
 51.3168	  -0.8260	   0.0000	
 46.4282	  -1.2479	   0.0000	
 47.5638	  -0.6861	   0.0000	
 47.1257	  -0.6318	   0.0000	
 49.2025	   0.1585	   0.0000	
 47.3322	   1.3454	   0.0000	
 51.2733	   0.8036	   0.0000	
 49.5871	   1.6913	   0.0000	
 51.9725	   1.7569	   0.0000	
 50.2554	   2.4724	   0.0000	
 54.0372	   0.0315	   0.0000	
 58.7814	   0.6056	   0.0000	
 49.4292	 -10.6363	   0.0000	
 50.7206	 -10.4865	   0.0000	
 50.8796	 -10.8219	   0.0000	
 51.3099	  -7.8445	   0.0000	
 43.9049	 -11.6425	   0.0000	
 50.8747	  -6.5945	   0.0000	
 44.8494	  -5.1040	   0.0000	
 45.0333	  -2.2723	   0.0000	
 46.3040	   1.1948	   0.0000	
 48.1066	   2.7557	   0.0000	
 46.5480	   5.4487	   0.0000	
 50.7381	   3.2972	   0.0000	
 49.3586	   5.6085	   0.0000	
 50.5604	   4.6700	   0.0000	
 51.7046	   4.5977	   0.0000	
 52.8762	   1.2282	   0.0000	
 56.2686	   0.9985	   0.0000	
 51.7490	  -0.5827	   0.0000	
 51.9854	  -4.5485	   0.0000	
 47.5319	  -4.6278	   0.0000	
 53.4445	  -2.4840	   0.0000	
 40.2654	  -7.0214	   0.0000	
 48.2042	   1.6218	   0.0000	
 43.9512	  -1.4013	   0.0000	
 45.5099	  -1.3896	   0.0000	
 44.1100	  -2.1529	   0.0000	
 45.8611	  -1.5530	   0.0000	
 44.0684	   3.1220	   0.0000	
 51.9028	   0.8138	   0.0000	
 47.4375	   3.3856	   0.0000	
 51.2069	   2.0544	   0.0000	
 51.2276	   0.1359	   0.0000	
 53.9288	  -0.1985	   0.0000	
 48.3125	 -12.0141	   0.0000	
 57.4766	  -7.5921	   0.0000	
 49.5412	 -12.0248	   0.0000	
 47.8471	 -15.5158	   0.0000	
 53.1801	  -8.1010	   0.0000	
 32.3213	 -13.5871	   0.0000	
 51.7702	  -9.7118	   0.0000	
 42.7057	  -8.2660	   0.0000	
 37.9964	  -1.1396	   0.0000	
 43.9207	   5.8708	   0.0000	
 45.8449	   6.8995	   0.0000	
 38.9663	   8.5166	   0.0000	
 51.3678	   6.0749	   0.0000	
 46.8560	  11.6632	   0.0000	
 51.0158	   7.3080	   0.0000	
 54.1675	   4.1680	   0.0000	
 48.9349	   6.6253	   0.0000	
 58.1761	  -4.5157	   0.0000	
 51.0527	  -5.0029	   0.0000	
 53.3866	  -6.2282	   0.0000	
 38.9224	  -9.2343	   0.0000	
 51.7375	   3.0477	   0.0000	
 36.8189	 -16.6935	   0.0000	
 44.7520	  -2.6395	   0.0000	
 34.3646	   1.4415	   0.0000	
 41.5822	  -1.8436	   0.0000	
 35.6006	  -4.1610	   0.0000	
 42.5683	   0.7208	   0.0000	
 41.7709	   5.8597	   0.0000	
 48.8846	  -4.5412	   0.0000	
 39.5412	   7.0210	   0.0000	
 53.0905	   3.3132	   0.0000	
 52.6784	   2.4630	   0.0000	
 54.8540	   2.1487	   0.0000	
 52.7878	 -17.8606	   0.0000	
 54.5841	 -16.4164	   0.0000	
 42.2337	 -22.2365	   0.0000	
 26.3628	 -24.9165	   0.0000	
 74.9509	  -8.7930	   0.0000	
 15.1675	 -18.1563	   0.0000	
 36.7285	  -6.0758	   0.0000	
 40.7986	 -10.2855	   0.0000	
 28.0957	  -0.2576	   0.0000	
 39.0553	   7.7928	   0.0000	
 34.0195	   7.1148	   0.0000	
 31.4423	  13.2399	   0.0000	
 61.8907	   9.3734	   0.0000	
 27.2333	  23.1165	   0.0000	
 46.6603	  17.6944	   0.0000	
 55.1194	  10.0252	   0.0000	
 52.4974	  11.4697	   0.0000	
 58.7405	 -14.2489	   0.0000	
 41.5988	 -24.3001	   0.0000	
  7.0091	 -29.5480	   0.0000	
 70.3827	 -22.6901	   0.0000	
 31.6549	 -13.1061	   0.0000	
  9.8996	 -20.3247	   0.0000	
 45.5765	 -17.8799	   0.0000	
 16.7683	  -4.3800	   0.0000	
 24.8213	  -3.3379	   0.0000	
 22.6625	  -0.6515	   0.0000	
 34.5015	   9.2842	   0.0000	
 22.1964	  13.7774	   0.0000	
 36.0678	  13.8146	   0.0000	
 60.0252	  18.9470	   0.0000	
 10.5690	  24.5146	   0.0000	
 49.0146	  15.9611	   0.0000	
 64.8124	   6.6096	   0.0000	
 23.8066	 -55.9651	   0.0000	
 54.1546	 -43.6611	   0.0000	
  1.9209	 -41.8157	   0.0000	
 45.1830	 -36.7408	   0.0000	
-16.7635	 -30.7137	   0.0000	
 43.0460	 -21.5737	   0.0000	
-11.8388	 -14.5025	   0.0000	
 18.7216	  -9.0220	   0.0000	
  3.4287	  -1.6989	   0.0000	
 16.0224	   5.5653	   0.0000	
  3.0297	  11.6338	   0.0000	
 22.2992	  18.8580	   0.0000	
  4.4500	  25.4954	   0.0000	
 30.0796	  31.8289	   0.0000	
 25.2091	  38.1488	   0.0000	
 43.0229	  44.2927	   0.0000	
 23.5424	  55.0097	   0.0000	
 -0.0000	   0.0000	   0.0000	
  0.0000	   0.0000	   0.0000	
  0.0000	   0.0000	   0.0000	
 -0.0000	   0.0000	   0.0000	
 -0.0000	  -0.0000	   0.0000	
 -0.0000	   0.0000	   0.0000	
 -0.0000	   0.0000	   0.0000	
 -0.0000	  -0.0000	   0.0000	
  0.0000	   0.0000	   0.0000	
 -0.0000	   0.0000	   0.0000	
 -0.0000	  -0.0000	   0.0000	
 -0.0000	  -0.0000	   0.0000	
 -0.0000	  -0.0000	   0.0000	
  0.0000	   0.0000	   0.0000	
  0.0000	   0.0000	   0.0000	
  0.0000	   0.0000	   0.0000	
  0.0000	  -0.0000	   0.0000	
 51.3000	  -0.0000	   0.0000	
 51.3000	  -0.0000	   0.0000	
 45.7635	  -1.5454	   0.0000	
 51.2828	   0.4122	   0.0000	
 25.4101	   1.3030	   0.0000	
 51.0286	   0.7792	   0.0000	
 40.6028	  -7.7252	   0.0000	
 51.5186	   1.3770	   0.0000	
 26.0350	  -2.4416	   0.0000	
 51.4451	   1.6936	   0.0000	
 45.3199	 -15.4300	   0.0000	
 51.2061	   1.8546	   0.0000	
 46.4585	 -16.2777	   0.0000	
 51.7593	   2.2799	   0.0000	
 45.2892	 -14.7172	   0.0000	
 51.4318	   2.2405	   0.0000	
 46.8982	 -14.7689	   0.0000	
 51.0343	   2.3741	   0.0000	
 45.2637	 -12.8721	   0.0000	
 51.8139	   3.3675	   0.0000	
 46.5194	 -12.6095	   0.0000	
 50.9760	   3.4012	   0.0000	
 48.3459	 -13.4958	   0.0000	
 51.1854	   4.6147	   0.0000	
 46.0873	 -12.1684	   0.0000	
 48.7067	   4.5620	   0.0000	
 50.7834	 -15.0816	   0.0000	
 51.9857	   8.0904	   0.0000	
 44.3630	 -11.6285	   0.0000	
 45.7344	   6.4572	   0.0000	
 54.1763	 -18.8967	   0.0000	
 52.9272	  14.0080	   0.0000	
 48.8132	 -17.6023	   0.0000	
 46.3117	  15.6542	   0.0000	
 73.7433	 -26.9496	   0.0000	
 75.8115	  25.7112	   0.0000	
  0.0000	   0.0000	   0.0000	
 -0.0000	   0.0000	   0.0000	
 57.7951	  -0.0000	   0.0000	
 55.0637	  -0.0000	   0.0000	
 49.8160	   0.4991	   0.0000	
 54.5877	   0.0940	   0.0000	
 52.7798	  -0.4342	   0.0000	
 53.8535	   0.0839	   0.0000	
 52.7741	  -0.0132	   0.0000	
 54.0017	   0.3655	   0.0000	
 52.5621	   0.2237	   0.0000	
 54.3118	   0.6829	   0.0000	
 53.6676	  -0.2518	   0.0000	
 54.3550	   0.9044	   0.0000	
 53.3854	  -0.2972	   0.0000	
 54.2849	   1.0799	   0.0000	
 52.0018	  -0.0259	   0.0000	
 54.6557	   1.4106	   0.0000	
 55.5479	  -1.9190	   0.0000	
 56.5273	   2.3682	   0.0000	
 55.6982	  -2.0183	   0.0000	
 56.6048	   2.9124	   0.0000	
 55.0601	  -2.2150	   0.0000	
 56.1109	   3.7011	   0.0000	
 58.1599	  -3.4067	   0.0000	
 58.7384	   4.6071	   0.0000	
 55.6141	  -3.1331	   0.0000	
 57.0378	   4.5824	   0.0000	
 59.3577	  -4.7903	   0.0000	
 56.7602	   4.2464	   0.0000	
 62.5808	  -5.2179	   0.0000	
 67.1653	   7.9501	   0.0000	
 62.8913	  -5.2718	   0.0000	
 56.1864	   4.5500	   0.0000	
 81.1573	 -10.5105	   0.0000	
 84.5971	  12.5808	   0.0000	
 32.7609	   0.7196	   0.0000	
 31.8788	   0.4933	   0.0000	
 -0.0000	   0.0000	   0.0000	
 -0.0000	  -0.0000	   0.0000	
 50.5948	  -0.0000	   0.0000	
 55.2214	   0.0000	   0.0000	
 51.4917	   0.1056	   0.0000	
 54.5182	  -0.2608	   0.0000	
 52.5621	   0.0568	   0.0000	
 54.3527	  -0.4754	   0.0000	
 53.2860	   0.1932	   0.0000	
 54.7721	  -0.7040	   0.0000	
 53.9433	   0.3237	   0.0000	
 54.7922	  -0.9990	   0.0000	
 53.5991	   0.6272	   0.0000	
 54.9829	  -1.3031	   0.0000	
 53.2193	   1.1638	   0.0000	
 54.5691	  -1.9233	   0.0000	
 54.6102	   1.5522	   0.0000	
 55.8360	  -2.4039	   0.0000	
 55.6693	   2.0873	   0.0000	
 56.9845	  -3.0388	   0.0000	
 55.6872	   2.8396	   0.0000	
 56.5346	  -3.8940	   0.0000	
 57.6441	   3.9290	   0.0000	
 58.5207	  -4.7958	   0.0000	
 58.4474	   5.0714	   0.0000	
 58.4002	  -5.8845	   0.0000	
 56.9099	   6.7688	   0.0000	
 56.5498	  -7.3817	   0.0000	
 60.4680	   8.9592	   0.0000	
 64.3848	  -9.5999	   0.0000	
 60.9429	  11.3523	   0.0000	
 60.7826	 -11.6014	   0.0000	
 79.0620	  15.1636	   0.0000	
 77.5369	 -14.0114	   0.0000	
 60.7583	  15.5867	   0.0000	
 60.5512	 -13.9415	   0.0000	
 35.8133	  13.3852	   0.0000	
 36.4200	 -11.5662	   0.0000	
 15.5361	   9.7618	   0.0000	
 15.4761	  -7.7869	   0.0000	
 52.3448	   0.0000	   0.0000	
 52.6456	   0.0000	   0.0000	
 51.2121	  -0.2418	   0.0000	
 52.4163	  -0.1945	   0.0000	
 51.4414	  -0.1438	   0.0000	
 52.6329	  -0.3763	   0.0000	
 51.2144	  -0.0757	   0.0000	
 52.3991	  -0.4740	   0.0000	
 51.5551	   0.1624	   0.0000	
 52.6643	  -0.7151	   0.0000	
 51.0806	   0.3102	   0.0000	
 52.1666	  -0.7926	   0.0000	
 51.4824	   0.4841	   0.0000	
 52.5221	  -1.0278	   0.0000	
 51.3961	   0.6212	   0.0000	
 52.2852	  -1.2019	   0.0000	
 50.6665	   0.7397	   0.0000	
 51.8923	  -1.4414	   0.0000	
 51.9896	   1.2810	   0.0000	
 52.9778	  -1.9825	   0.0000	
 50.4096	   1.4387	   0.0000	
 51.8107	  -2.2349	   0.0000	
 49.9330	   2.1007	   0.0000	
 50.9974	  -3.0175	   0.0000	
 51.5690	   2.9167	   0.0000	
 52.0823	  -3.7594	   0.0000	
 48.7767	   3.4223	   0.0000	
 51.0442	  -4.3008	   0.0000	
 49.0082	   5.0909	   0.0000	
 51.1670	  -6.6033	   0.0000	
 52.2747	   7.4960	   0.0000	
 53.6536	  -9.0080	   0.0000	
 58.3355	  13.7924	   0.0000	
 59.6873	 -15.0035	   0.0000	
 47.8510	  13.5733	   0.0000	
 50.1967	 -15.0056	   0.0000	
 27.8743	   9.6650	   0.0000	
 29.0278	 -10.9209	   0.0000	
 50.4234	  -0.0000	   0.0000	
 51.0968	   0.0000	   0.0000	
 50.8620	   0.2415	   0.0000	
 51.3704	  -0.1826	   0.0000	
 51.0357	   0.4430	   0.0000	
 51.4484	  -0.3288	   0.0000	
 51.0617	   0.5851	   0.0000	
 51.4598	  -0.4510	   0.0000	
 50.9272	   0.5650	   0.0000	
 51.5711	  -0.6019	   0.0000	
 50.8351	   0.5744	   0.0000	
 51.5640	  -0.7494	   0.0000	
 50.7701	   0.6012	   0.0000	
 51.6304	  -0.9119	   0.0000	
 50.6977	   0.6518	   0.0000	
 51.3394	  -0.9627	   0.0000	
 51.1288	   0.8601	   0.0000	
 51.7154	  -1.2339	   0.0000	
 50.6126	   0.7962	   0.0000	
 51.2642	  -1.2243	   0.0000	
 50.8390	   0.8805	   0.0000	
 51.4007	  -1.3880	   0.0000	
 50.6350	   1.0316	   0.0000	
 51.2292	  -1.6096	   0.0000	
 49.7968	   0.6767	   0.0000	
 50.5989	  -1.4911	   0.0000	
 50.4195	   1.0184	   0.0000	
 51.0396	  -1.7458	   0.0000	
 49.5471	   0.8111	   0.0000	
 50.2658	  -1.7464	   0.0000	
 47.7425	   0.1254	   0.0000	
 48.6696	  -1.4223	   0.0000	
 49.2205	   0.8901	   0.0000	
 49.4817	  -2.0536	   0.0000	
 46.8700	   1.6381	   0.0000	
 48.7496	  -3.6937	   0.0000	
 42.2856	   5.1942	   0.0000	
 43.3602	  -6.6762	   0.0000	
 50.5816	  -0.0000	   0.0000	
 50.8615	   0.0000	   0.0000	
 50.5661	  -0.0289	   0.0000	
 50.8870	  -0.0203	   0.0000	
 50.5874	  -0.0519	   0.0000	
 50.9082	  -0.0395	   0.0000	
 50.6357	  -0.0636	   0.0000	
 50.9248	  -0.0597	   0.0000	
 50.6559	  -0.0889	   0.0000	
 50.9858	  -0.0998	   0.0000	
 50.5643	  -0.0722	   0.0000	
 50.9231	  -0.1328	   0.0000	
 50.5953	   0.0678	   0.0000	
 50.9336	  -0.2387	   0.0000	
 50.5726	   0.1828	   0.0000	
 50.9412	  -0.3507	   0.0000	
 50.5668	   0.2877	   0.0000	
 50.8391	  -0.4397	   0.0000	
 50.3682	   0.2379	   0.0000	
 50.7082	  -0.5500	   0.0000	
 50.5449	   0.4102	   0.0000	
 50.9269	  -0.8163	   0.0000	
 50.0430	   0.3731	   0.0000	
 50.4918	  -0.8637	   0.0000	
 50.3089	   0.6708	   0.0000	
 50.7288	  -1.1908	   0.0000	
 49.7613	   0.5611	   0.0000	
 50.2101	  -1.1337	   0.0000	
 49.5228	   0.7194	   0.0000	
 50.0471	  -1.3487	   0.0000	
 49.8436	   0.8632	   0.0000	
 50.1410	  -1.5232	   0.0000	
 48.8002	   0.3281	   0.0000	
 49.2262	  -1.2016	   0.0000	
 50.1388	   0.1907	   0.0000	
 49.7555	  -1.0946	   0.0000	
 44.6239	  -1.8631	   0.0000	
 45.8093	   0.2278	   0.0000	
  0.0000	   0.0000	   0.0000	
  0.0000	   0.0000	   0.0000	
 -0.0000	   0.0000	   0.0000	
 -0.0000	  -0.0000	   0.0000	
 -0.0000	   0.0000	   0.0000	
 -0.0000	   0.0000	   0.0000	
  0.0000	  -0.0000	   0.0000	
  0.0000	  -0.0000	   0.0000	
  0.0000	  -0.0000	   0.0000	
  0.0000	  -0.0000	   0.0000	
  0.0000	  -0.0000	   0.0000	
 -0.0000	  -0.0000	   0.0000	
  0.0000	   0.0000	   0.0000	
  0.0000	  -0.0000	   0.0000	
  0.0000	  -0.0000	   0.0000	
  0.0000	   0.0000	   0.0000	
  0.0000	   0.0000	   0.0000	
  0.0000	   0.0000	   0.0000	
 16.9966	   9.5247	   0.0000	
 15.2868	  -7.3942	   0.0000	
 19.1950	   8.6434	   0.0000	
 18.7800	  -6.8948	   0.0000	
 16.8925	   7.5551	   0.0000	
 18.3147	  -5.8137	   0.0000	
 13.7151	   6.4633	   0.0000	
 15.2956	  -4.5153	   0.0000	
 10.9304	   5.3420	   0.0000	
 11.4580	  -3.1584	   0.0000	
  8.8207	   4.1918	   0.0000	
  9.2703	  -1.8653	   0.0000	
  7.2483	   3.1441	   0.0000	
  7.7309	  -0.7329	   0.0000	
  0.0000	   0.0000	   0.0000	
  0.0000	   0.0000	   0.0000	
 30.1734	   8.7143	   0.0000	
 27.4665	  -9.7611	   0.0000	
 32.7950	   7.6934	   0.0000	
 28.4267	  -8.5593	   0.0000	
 33.1555	   6.5908	   0.0000	
 31.6825	  -7.6437	   0.0000	
 33.3150	   5.3865	   0.0000	
 32.8893	  -6.6671	   0.0000	
 33.6950	   4.0708	   0.0000	
 33.4906	  -5.5657	   0.0000	
 33.9042	   2.6613	   0.0000	
 33.6213	  -4.3515	   0.0000	
 34.0481	   1.1732	   0.0000	
 33.8975	  -3.0738	   0.0000	
  0.0000	   0.0000	   0.0000	
  0.0000	   0.0000	   0.0000	
 47.4818	   2.2091	   0.0000	
 46.4479	  -4.3383	   0.0000	
 49.9569	   1.7521	   0.0000	
 48.0853	  -3.6891	   0.0000	
 49.6874	   1.3482	   0.0000	
 48.5592	  -3.1641	   0.0000	
 49.5111	   0.8796	   0.0000	
 48.7862	  -2.5919	   0.0000	
 49.3472	   0.4726	   0.0000	
 48.8128	  -2.1941	   0.0000	
 49.1487	   0.0810	   0.0000	
 48.8562	  -1.7108	   0.0000	
 48.9929	  -0.3234	   0.0000	
 48.9087	  -1.3817	   0.0000	
  0.0000	   0.0000	   0.0000	
  0.0000	   0.0000	   0.0000	
 47.5032	  -1.3210	   0.0000	
 46.6722	   0.1888	   0.0000	
 49.5537	  -1.2339	   0.0000	
 49.9811	   0.1542	   0.0000	
 49.4175	  -1.0970	   0.0000	
 50.2017	   0.1296	   0.0000	
 49.2318	  -0.9551	   0.0000	
 49.7197	   0.0817	   0.0000	
 49.3872	  -0.8329	   0.0000	
 49.6609	  -0.0081	   0.0000	
 49.2244	  -0.6536	   0.0000	
 49.4138	  -0.0944	   0.0000	
 49.3527	  -0.5221	   0.0000	
 49.4787	  -0.1719	   0.0000	
 -0.0000	  -0.0000	   0.0000	
  0.0000	  -0.0000	   0.0000	
 -0.0000	   0.0000	   0.0000	
  7.3137	   2.1356	   0.0000	
  6.8749	   1.3541	   0.0000	
  6.6690	   0.6131	   0.0000	
 34.7004	  -0.1685	   0.0000	
 34.3439	  -0.9549	   0.0000	
 33.8600	  -1.7733	   0.0000	
 48.7658	  -0.7467	   0.0000	
 49.0897	  -0.7894	   0.0000	
 49.2419	  -0.9516	   0.0000	
 49.0582	  -0.4764	   0.0000	
 49.0517	  -0.3973	   0.0000	
 49.4308	  -0.2302	   0.0000	
 48.7466	   0.0913	   0.0000	
 48.8604	  -0.9345	   0.0000	
 47.4958	  -0.1492	   0.0000	
 47.9524	  -0.7356	   0.0000	
 46.4679	  -0.4600	   0.0000	
 47.2499	  -0.4657	   0.0000	
 48.5608	  -1.1296	   0.0000	
 48.6403	   0.0767	   0.0000	
 49.5028	  -0.9408	   0.0000	
 50.0989	  -0.1535	   0.0000	
 49.2013	  -0.8092	   0.0000	
 49.5516	  -0.3765	   0.0000	
 49.1663	  -0.7247	   0.0000	
 49.4020	  -0.5059	   0.0000	
 49.3419	  -0.6655	   0.0000	
 49.3261	  -0.6034	   0.0000	
 49.4215	   0.4063	   0.0000	
 49.5593	  -1.2690	   0.0000	
 49.8516	   0.5082	   0.0000	