# vtk DataFile Version 3.0 
Results 
ASCII 
DATASET UNSTRUCTURED_GRID 
POINTS 	    1085 float 
  0.0000	   0.6667	  0.0000	 
  0.0000	   1.3333	  0.0000	 
  0.0000	   2.0000	  0.0000	 
  0.0000	   2.6667	  0.0000	 
  0.0000	   3.3333	  0.0000	 
  0.0000	   4.0000	  0.0000	 
  0.0000	   4.6667	  0.0000	 
  0.0000	   5.3333	  0.0000	 
  0.0000	   6.0000	  0.0000	 
  0.0000	   6.6667	  0.0000	 
  0.0000	   7.3333	  0.0000	 
  0.0000	   8.0000	  0.0000	 
  0.0000	   8.6667	  0.0000	 
  0.0000	   9.3333	  0.0000	 
  0.0000	  10.0000	  0.0000	 
  0.0000	  10.6667	  0.0000	 
  0.0000	  11.3333	  0.0000	 
  0.2500	   0.9383	  0.0000	 
  0.2500	   1.5710	  0.0000	 
  0.2500	   2.2037	  0.0000	 
  0.2500	   2.8364	  0.0000	 
  0.2500	   3.4691	  0.0000	 
  0.2500	   4.1019	  0.0000	 
  0.2500	   4.7346	  0.0000	 
  0.2500	   5.3673	  0.0000	 
  0.2500	   6.0000	  0.0000	 
  0.2500	   6.6327	  0.0000	 
  0.2500	   7.2654	  0.0000	 
  0.2500	   7.8981	  0.0000	 
  0.2500	   8.5309	  0.0000	 
  0.2500	   9.1636	  0.0000	 
  0.2500	   9.7963	  0.0000	 
  0.2500	  10.4290	  0.0000	 
  0.2500	  11.0617	  0.0000	 
  0.5000	   1.2099	  0.0000	 
  0.5000	   1.8086	  0.0000	 
  0.5000	   2.4074	  0.0000	 
  0.5000	   3.0062	  0.0000	 
  0.5000	   3.6049	  0.0000	 
  0.5000	   4.2037	  0.0000	 
  0.5000	   4.8025	  0.0000	 
  0.5000	   5.4012	  0.0000	 
  0.5000	   6.0000	  0.0000	 
  0.5000	   6.5988	  0.0000	 
  0.5000	   7.1975	  0.0000	 
  0.5000	   7.7963	  0.0000	 
  0.5000	   8.3951	  0.0000	 
  0.5000	   8.9938	  0.0000	 
  0.5000	   9.5926	  0.0000	 
  0.5000	  10.1914	  0.0000	 
  0.5000	  10.7901	  0.0000	 
  0.7500	   1.4815	  0.0000	 
  0.7500	   2.0463	  0.0000	 
  0.7500	   2.6111	  0.0000	 
  0.7500	   3.1759	  0.0000	 
  0.7500	   3.7407	  0.0000	 
  0.7500	   4.3056	  0.0000	 
  0.7500	   4.8704	  0.0000	 
  0.7500	   5.4352	  0.0000	 
  0.7500	   6.0000	  0.0000	 
  0.7500	   6.5648	  0.0000	 
  0.7500	   7.1296	  0.0000	 
  0.7500	   7.6944	  0.0000	 
  0.7500	   8.2593	  0.0000	 
  0.7500	   8.8241	  0.0000	 
  0.7500	   9.3889	  0.0000	 
  0.7500	   9.9537	  0.0000	 
  0.7500	  10.5185	  0.0000	 
  1.0000	   1.7531	  0.0000	 
  1.0000	   2.2840	  0.0000	 
  1.0000	   2.8148	  0.0000	 
  1.0000	   3.3457	  0.0000	 
  1.0000	   3.8765	  0.0000	 
  1.0000	   4.4074	  0.0000	 
  1.0000	   4.9383	  0.0000	 
  1.0000	   5.4691	  0.0000	 
  1.0000	   6.0000	  0.0000	 
  1.0000	   6.5309	  0.0000	 
  1.0000	   7.0617	  0.0000	 
  1.0000	   7.5926	  0.0000	 
  1.0000	   8.1235	  0.0000	 
  1.0000	   8.6543	  0.0000	 
  1.0000	   9.1852	  0.0000	 
  1.0000	   9.7160	  0.0000	 
  1.0000	  10.2469	  0.0000	 
  1.2500	   2.0247	  0.0000	 
  1.2500	   2.5216	  0.0000	 
  1.2500	   3.0185	  0.0000	 
  1.2500	   3.5154	  0.0000	 
  1.2500	   4.0123	  0.0000	 
  1.2500	   4.5093	  0.0000	 
  1.2500	   5.0062	  0.0000	 
  1.2500	   5.5031	  0.0000	 
  1.2500	   6.0000	  0.0000	 
  1.2500	   6.4969	  0.0000	 
  1.2500	   6.9938	  0.0000	 
  1.2500	   7.4907	  0.0000	 
  1.2500	   7.9877	  0.0000	 
  1.2500	   8.4846	  0.0000	 
  1.2500	   8.9815	  0.0000	 
  1.2500	   9.4784	  0.0000	 
  1.2500	   9.9753	  0.0000	 
  1.5000	   2.2963	  0.0000	 
  1.5000	   2.7593	  0.0000	 
  1.5000	   3.2222	  0.0000	 
  1.5000	   3.6852	  0.0000	 
  1.5000	   4.1481	  0.0000	 
  1.5000	   4.6111	  0.0000	 
  1.5000	   5.0741	  0.0000	 
  1.5000	   5.5370	  0.0000	 
  1.5000	   6.0000	  0.0000	 
  1.5000	   6.4630	  0.0000	 
  1.5000	   6.9259	  0.0000	 
  1.5000	   7.3889	  0.0000	 
  1.5000	   7.8519	  0.0000	 
  1.5000	   8.3148	  0.0000	 
  1.5000	   8.7778	  0.0000	 
  1.5000	   9.2407	  0.0000	 
  1.5000	   9.7037	  0.0000	 
  1.7500	   2.5679	  0.0000	 
  1.7500	   2.9969	  0.0000	 
  1.7500	   3.4259	  0.0000	 
  1.7500	   3.8549	  0.0000	 
  1.7500	   4.2840	  0.0000	 
  1.7500	   4.7130	  0.0000	 
  1.7500	   5.1420	  0.0000	 
  1.7500	   5.5710	  0.0000	 
  1.7500	   6.0000	  0.0000	 
  1.7500	   6.4290	  0.0000	 
  1.7500	   6.8580	  0.0000	 
  1.7500	   7.2870	  0.0000	 
  1.7500	   7.7160	  0.0000	 
  1.7500	   8.1451	  0.0000	 
  1.7500	   8.5741	  0.0000	 
  1.7500	   9.0031	  0.0000	 
  1.7500	   9.4321	  0.0000	 
  2.0000	   2.8395	  0.0000	 
  2.0000	   3.2346	  0.0000	 
  2.0000	   3.6296	  0.0000	 
  2.0000	   4.0247	  0.0000	 
  2.0000	   4.4198	  0.0000	 
  2.0000	   4.8148	  0.0000	 
  2.0000	   5.2099	  0.0000	 
  2.0000	   5.6049	  0.0000	 
  2.0000	   6.0000	  0.0000	 
  2.0000	   6.3951	  0.0000	 
  2.0000	   6.7901	  0.0000	 
  2.0000	   7.1852	  0.0000	 
  2.0000	   7.5802	  0.0000	 
  2.0000	   7.9753	  0.0000	 
  2.0000	   8.3704	  0.0000	 
  2.0000	   8.7654	  0.0000	 
  2.0000	   9.1605	  0.0000	 
  2.2500	   3.1111	  0.0000	 
  2.2500	   3.4722	  0.0000	 
  2.2500	   3.8333	  0.0000	 
  2.2500	   4.1944	  0.0000	 
  2.2500	   4.5556	  0.0000	 
  2.2500	   4.9167	  0.0000	 
  2.2500	   5.2778	  0.0000	 
  2.2500	   5.6389	  0.0000	 
  2.2500	   6.0000	  0.0000	 
  2.2500	   6.3611	  0.0000	 
  2.2500	   6.7222	  0.0000	 
  2.2500	   7.0833	  0.0000	 
  2.2500	   7.4444	  0.0000	 
  2.2500	   7.8056	  0.0000	 
  2.2500	   8.1667	  0.0000	 
  2.2500	   8.5278	  0.0000	 
  2.2500	   8.8889	  0.0000	 
  2.5000	   3.3827	  0.0000	 
  2.5000	   3.7099	  0.0000	 
  2.5000	   4.0370	  0.0000	 
  2.5000	   4.3642	  0.0000	 
  2.5000	   4.6914	  0.0000	 
  2.5000	   5.0185	  0.0000	 
  2.5000	   5.3457	  0.0000	 
  2.5000	   5.6728	  0.0000	 
  2.5000	   6.0000	  0.0000	 
  2.5000	   6.3272	  0.0000	 
  2.5000	   6.6543	  0.0000	 
  2.5000	   6.9815	  0.0000	 
  2.5000	   7.3086	  0.0000	 
  2.5000	   7.6358	  0.0000	 
  2.5000	   7.9630	  0.0000	 
  2.5000	   8.2901	  0.0000	 
  2.5000	   8.6173	  0.0000	 
  2.7500	   3.6543	  0.0000	 
  2.7500	   3.9475	  0.0000	 
  2.7500	   4.2407	  0.0000	 
  2.7500	   4.5340	  0.0000	 
  2.7500	   4.8272	  0.0000	 
  2.7500	   5.1204	  0.0000	 
  2.7500	   5.4136	  0.0000	 
  2.7500	   5.7068	  0.0000	 
  2.7500	   6.0000	  0.0000	 
  2.7500	   6.2932	  0.0000	 
  2.7500	   6.5864	  0.0000	 
  2.7500	   6.8796	  0.0000	 
  2.7500	   7.1728	  0.0000	 
  2.7500	   7.4660	  0.0000	 
  2.7500	   7.7593	  0.0000	 
  2.7500	   8.0525	  0.0000	 
  2.7500	   8.3457	  0.0000	 
  3.0000	   3.9259	  0.0000	 
  3.0000	   4.1852	  0.0000	 
  3.0000	   4.4444	  0.0000	 
  3.0000	   4.7037	  0.0000	 
  3.0000	   4.9630	  0.0000	 
  3.0000	   5.2222	  0.0000	 
  3.0000	   5.4815	  0.0000	 
  3.0000	   5.7407	  0.0000	 
  3.0000	   6.0000	  0.0000	 
  3.0000	   6.2593	  0.0000	 
  3.0000	   6.5185	  0.0000	 
  3.0000	   6.7778	  0.0000	 
  3.0000	   7.0370	  0.0000	 
  3.0000	   7.2963	  0.0000	 
  3.0000	   7.5556	  0.0000	 
  3.0000	   7.8148	  0.0000	 
  3.0000	   8.0741	  0.0000	 
  3.2500	   4.1975	  0.0000	 
  3.2500	   4.4228	  0.0000	 
  3.2500	   4.6481	  0.0000	 
  3.2500	   4.8735	  0.0000	 
  3.2500	   5.0988	  0.0000	 
  3.2500	   5.3241	  0.0000	 
  3.2500	   5.5494	  0.0000	 
  3.2500	   5.7747	  0.0000	 
  3.2500	   6.0000	  0.0000	 
  3.2500	   6.2253	  0.0000	 
  3.2500	   6.4506	  0.0000	 
  3.2500	   6.6759	  0.0000	 
  3.2500	   6.9012	  0.0000	 
  3.2500	   7.1265	  0.0000	 
  3.2500	   7.3519	  0.0000	 
  3.2500	   7.5772	  0.0000	 
  3.2500	   7.8025	  0.0000	 
  3.5000	   4.4691	  0.0000	 
  3.5000	   4.6605	  0.0000	 
  3.5000	   4.8519	  0.0000	 
  3.5000	   5.0432	  0.0000	 
  3.5000	   5.2346	  0.0000	 
  3.5000	   5.4259	  0.0000	 
  3.5000	   5.6173	  0.0000	 
  3.5000	   5.8086	  0.0000	 
  3.5000	   6.0000	  0.0000	 
  3.5000	   6.1914	  0.0000	 
  3.5000	   6.3827	  0.0000	 
  3.5000	   6.5741	  0.0000	 
  3.5000	   6.7654	  0.0000	 
  3.5000	   6.9568	  0.0000	 
  3.5000	   7.1481	  0.0000	 
  3.5000	   7.3395	  0.0000	 
  3.5000	   7.5309	  0.0000	 
  3.7500	   4.7407	  0.0000	 
  3.7500	   4.8981	  0.0000	 
  3.7500	   5.0556	  0.0000	 
  3.7500	   5.2130	  0.0000	 
  3.7500	   5.3704	  0.0000	 
  3.7500	   5.5278	  0.0000	 
  3.7500	   5.6852	  0.0000	 
  3.7500	   5.8426	  0.0000	 
  3.7500	   6.0000	  0.0000	 
  3.7500	   6.1574	  0.0000	 
  3.7500	   6.3148	  0.0000	 
  3.7500	   6.4722	  0.0000	 
  3.7500	   6.6296	  0.0000	 
  3.7500	   6.7870	  0.0000	 
  3.7500	   6.9444	  0.0000	 
  3.7500	   7.1019	  0.0000	 
  3.7500	   7.2593	  0.0000	 
  4.0000	   5.0123	  0.0000	 
  4.0000	   5.1358	  0.0000	 
  4.0000	   5.2593	  0.0000	 
  4.0000	   5.3827	  0.0000	 
  4.0000	   5.5062	  0.0000	 
  4.0000	   5.6296	  0.0000	 
  4.0000	   5.7531	  0.0000	 
  4.0000	   5.8765	  0.0000	 
  4.0000	   6.0000	  0.0000	 
  4.0000	   6.1235	  0.0000	 
  4.0000	   6.2469	  0.0000	 
  4.0000	   6.3704	  0.0000	 
  4.0000	   6.4938	  0.0000	 
  4.0000	   6.6173	  0.0000	 
  4.0000	   6.7407	  0.0000	 
  4.0000	   6.8642	  0.0000	 
  4.0000	   6.9877	  0.0000	 
  4.2500	   5.2840	  0.0000	 
  4.2500	   5.3735	  0.0000	 
  4.2500	   5.4630	  0.0000	 
  4.2500	   5.5525	  0.0000	 
  4.2500	   5.6420	  0.0000	 
  4.2500	   5.7315	  0.0000	 
  4.2500	   5.8210	  0.0000	 
  4.2500	   5.9105	  0.0000	 
  4.2500	   6.0000	  0.0000	 
  4.2500	   6.0895	  0.0000	 
  4.2500	   6.1790	  0.0000	 
  4.2500	   6.2685	  0.0000	 
  4.2500	   6.3580	  0.0000	 
  4.2500	   6.4475	  0.0000	 
  4.2500	   6.5370	  0.0000	 
  4.2500	   6.6265	  0.0000	 
  4.2500	   6.7160	  0.0000	 
  4.5000	   5.5556	  0.0000	 
  4.5000	   5.6111	  0.0000	 
  4.5000	   5.6667	  0.0000	 
  4.5000	   5.7222	  0.0000	 
  4.5000	   5.7778	  0.0000	 
  4.5000	   5.8333	  0.0000	 
  4.5000	   5.8889	  0.0000	 
  4.5000	   5.9444	  0.0000	 
  4.5000	   6.0000	  0.0000	 
  4.5000	   6.0556	  0.0000	 
  4.5000	   6.1111	  0.0000	 
  4.5000	   6.1667	  0.0000	 
  4.5000	   6.2222	  0.0000	 
  4.5000	   6.2778	  0.0000	 
  4.5000	   6.3333	  0.0000	 
  4.5000	   6.3889	  0.0000	 
  4.5000	   6.4444	  0.0000	 
  0.0000	   0.0000	  0.0000	 
  0.0000	  12.0000	  0.0000	 
  0.2500	   0.3056	  0.0000	 
  0.2500	  11.6944	  0.0000	 
  0.5000	   0.6111	  0.0000	 
  0.5000	  11.3889	  0.0000	 
  0.7500	   0.9167	  0.0000	 
[...]
POINT_DATA 	    1085 
VECTORS U float 
 51.3000	  -0.0000	   0.0000	
 51.3000	   0.0000	   0.0000	
 51.3000	  -0.0000	   0.0000	
 51.3000	   0.0000	   0.0000	
 51.3000	   0.0000	   0.0000	
 51.3000	   0.0000	   0.0000	
 51.3000	   0.0000	   0.0000	
 51.3000	  -0.0000	   0.0000	
 51.3000	   0.0000	   0.0000	
 51.3000	  -0.0000	   0.0000	
 51.3000	   0.0000	   0.0000	
 51.3000	  -0.0000	   0.0000	
 51.3000	  -0.0000	   0.0000	
 51.3000	   0.0000	   0.0000	
 51.3000	  -0.0000	   0.0000	
 51.3000	   0.0000	   0.0000	
 51.3000	  -0.0000	   0.0000	
 31.6886	  13.8893	   0.0000	
 54.0073	   0.8897	   0.0000	
 50.9180	  11.1921	   0.0000	
 51.0621	   0.8366	   0.0000	
 50.9830	   6.7651	   0.0000	
 51.0960	   7.8911	   0.0000	
 51.5075	   6.9825	   0.0000	
 51.2744	   6.9479	   0.0000	
 51.5378	   6.7919	   0.0000	
 51.4048	   5.4890	   0.0000	
 51.3610	   4.7569	   0.0000	
 51.6131	   4.3438	   0.0000	
 51.4814	   2.1773	   0.0000	
 51.3396	   1.4635	   0.0000	
 51.3543	   0.8128	   0.0000	
 51.2869	   0.9132	   0.0000	
 51.4024	   0.3335	   0.0000	
 50.2020	 -11.4468	   0.0000	
 44.9649	  18.4770	   0.0000	
 58.7849	  -1.6642	   0.0000	
 47.3653	   8.6263	   0.0000	
 50.7728	   1.8665	   0.0000	
 51.9696	  -0.7841	   0.0000	
 51.4900	  -0.8757	   0.0000	
 51.3963	  -1.2415	   0.0000	
 51.1163	  -0.4703	   0.0000	
 51.6492	   1.1197	   0.0000	
 51.4652	   1.2183	   0.0000	
 51.4449	   1.5868	   0.0000	
 52.2340	   2.5440	   0.0000	
 51.9291	   2.7685	   0.0000	
 51.6862	   1.8451	   0.0000	
 51.2969	   1.2550	   0.0000	
 51.6465	   0.8760	   0.0000	
 29.9361	   3.8974	   0.0000	
 66.7462	  -3.3120	   0.0000	
 45.4257	   5.9816	   0.0000	
 54.3921	  -1.9526	   0.0000	
 53.0855	  -5.0414	   0.0000	
 51.8612	  -6.0725	   0.0000	
 51.5290	  -5.7064	   0.0000	
 50.9298	  -4.5753	   0.0000	
 50.6973	  -3.5841	   0.0000	
 50.9787	  -2.5505	   0.0000	
 51.3474	  -1.2762	   0.0000	
 51.1199	  -0.5292	   0.0000	
 51.3750	   0.5899	   0.0000	
 51.3471	   1.9998	   0.0000	
 51.9268	   2.0677	   0.0000	
 51.8147	   1.9348	   0.0000	
 51.5185	   0.5812	   0.0000	
 48.4907	 -21.3456	   0.0000	
 54.7538	   1.0293	   0.0000	
 51.8294	  -8.0789	   0.0000	
 53.8438	  -6.9941	   0.0000	
 52.9065	  -5.7717	   0.0000	
 51.5586	  -6.0114	   0.0000	
 50.9785	  -4.7092	   0.0000	
 50.5347	  -4.1963	   0.0000	
 50.3102	  -3.3024	   0.0000	
 50.4987	  -2.4121	   0.0000	
 50.8218	  -1.5267	   0.0000	
 50.8145	  -0.5881	   0.0000	
 50.8612	   0.0584	   0.0000	
 51.1324	   0.5793	   0.0000	
 51.9048	   0.8575	   0.0000	
 51.6415	   1.4200	   0.0000	
 52.4958	   0.5161	   0.0000	
 45.4527	 -20.0350	   0.0000	
 54.5460	 -13.2266	   0.0000	
 51.5410	 -14.2400	   0.0000	
 52.4785	  -9.2184	   0.0000	
 52.6388	  -8.1436	   0.0000	
 50.5616	  -6.7699	   0.0000	
 50.6008	  -5.3043	   0.0000	
 49.9953	  -4.3915	   0.0000	
 49.8690	  -3.3294	   0.0000	
 50.0180	  -2.4154	   0.0000	
 50.4185	  -1.5154	   0.0000	
 50.4622	  -0.8710	   0.0000	
 50.5734	  -0.3683	   0.0000	
 50.9727	  -0.2781	   0.0000	
 51.6177	  -0.7620	   0.0000	
 51.3341	   0.0210	   0.0000	
 52.6585	  -0.6186	   0.0000	
 47.7835	 -16.3758	   0.0000	
 53.5197	 -12.2572	   0.0000	
 49.1142	 -10.8393	   0.0000	
 52.1532	  -8.6625	   0.0000	
 51.5514	  -7.2146	   0.0000	
 49.6809	  -6.7213	   0.0000	
 50.1773	  -5.4204	   0.0000	
 49.3746	  -4.6316	   0.0000	
 49.3169	  -3.4122	   0.0000	
 49.5002	  -2.3520	   0.0000	
 49.9274	  -1.4480	   0.0000	
 50.1472	  -0.6506	   0.0000	
 50.3083	  -0.1494	   0.0000	
 50.8006	  -0.0055	   0.0000	
 51.7253	  -0.3218	   0.0000	
 51.0319	   0.1568	   0.0000	
 52.4557	  -0.8949	   0.0000	
 50.8117	  -9.9756	   0.0000	
 50.4806	  -8.3978	   0.0000	
 49.6168	  -9.6077	   0.0000	
 51.2929	  -7.4428	   0.0000	
 50.9233	  -6.7660	   0.0000	
 48.9267	  -6.5713	   0.0000	
 49.7816	  -5.2417	   0.0000	
 48.6593	  -4.6465	   0.0000	
 48.7381	  -3.4142	   0.0000	
 48.8682	  -2.3456	   0.0000	
 49.3733	  -1.3560	   0.0000	
 49.7075	  -0.4898	   0.0000	
 49.9982	   0.0503	   0.0000	
 50.5631	   0.2909	   0.0000	
 51.4321	   0.0795	   0.0000	
 51.1152	   1.0754	   0.0000	
 52.3020	  -0.5855	   0.0000	
 51.3475	  -6.0044	   0.0000	
 50.4312	 -10.1968	   0.0000	
 49.1922	  -9.2071	   0.0000	
 50.7865	  -7.6254	   0.0000	
 50.3242	  -6.9439	   0.0000	
 48.0908	  -6.8614	   0.0000	
 49.4023	  -5.3939	   0.0000	
 47.7762	  -4.5614	   0.0000	
 48.1041	  -3.2262	   0.0000	
 48.1785	  -2.2063	   0.0000	
 48.7662	  -1.2092	   0.0000	
 49.1342	  -0.3840	   0.0000	
 49.7093	   0.1135	   0.0000	
 50.1947	   0.2434	   0.0000	
 51.1758	   0.1697	   0.0000	
 50.6225	   1.0593	   0.0000	
 52.6708	  -0.2853	   0.0000	
 55.5459	  -3.7850	   0.0000	
 48.5296	 -10.2480	   0.0000	
 49.0855	  -8.6486	   0.0000	
 50.2201	  -7.4375	   0.0000	
 49.9590	  -7.1299	   0.0000	
 47.2238	  -7.6637	   0.0000	
 48.7828	  -5.6551	   0.0000	
 46.8429	  -5.2326	   0.0000	
 47.1393	  -3.6086	   0.0000	
 47.4333	  -2.0852	   0.0000	
 48.0051	  -1.0371	   0.0000	
 48.5308	   0.0781	   0.0000	
 49.2779	   0.3595	   0.0000	
 49.9018	   0.7176	   0.0000	
 50.6623	   0.6344	   0.0000	
 50.4429	   1.5654	   0.0000	
 52.1813	  -0.1088	   0.0000	
 55.7652	  -2.6170	   0.0000	
 47.4158	 -10.1741	   0.0000	
 48.8892	  -8.4730	   0.0000	
 49.6448	  -7.2824	   0.0000	
 49.7668	  -6.4685	   0.0000	
 45.7354	  -6.9237	   0.0000	
 48.5714	  -4.8864	   0.0000	
 45.7652	  -4.5693	   0.0000	
 46.1988	  -3.0688	   0.0000	
 46.3991	  -1.8543	   0.0000	
 47.2375	  -0.7871	   0.0000	
 47.5782	   0.2103	   0.0000	
 49.0146	   0.5094	   0.0000	
 49.2727	   0.8111	   0.0000	
 50.3032	   1.0334	   0.0000	
 50.0442	   1.3710	   0.0000	
 52.1295	  -0.1998	   0.0000	
 54.8815	  -2.9033	   0.0000	
 48.0074	  -9.7010	   0.0000	
 48.9720	 -10.6182	   0.0000	
 48.6860	 -10.1252	   0.0000	
 49.0618	  -8.1490	   0.0000	
 44.3891	  -9.9508	   0.0000	
 47.9974	  -6.7297	   0.0000	
 44.1988	  -5.6805	   0.0000	
 44.5611	  -3.7184	   0.0000	
 45.2065	  -1.5538	   0.0000	
 46.2090	  -0.0569	   0.0000	
 46.6169	   1.3636	   0.0000	
 48.4079	   1.2536	   0.0000	
 48.7676	   2.1340	   0.0000	
 49.5370	   2.0720	   0.0000	
 50.3629	   1.7722	   0.0000	
 51.5318	   0.2408	   0.0000	
 51.7768	  -4.0998	   0.0000	
 50.8004	  -4.2869	   0.0000	
 49.2404	  -7.9638	   0.0000	
 46.4877	  -8.2779	   0.0000	
 50.0645	  -6.5251	   0.0000	
 41.7184	  -9.3430	   0.0000	
 46.2581	  -3.6445	   0.0000	
 43.0026	  -4.4061	   0.0000	
 43.5010	  -3.0946	   0.0000	
 43.4511	  -2.0257	   0.0000	
 44.4914	  -0.6352	   0.0000	
 44.9443	   1.7810	   0.0000	
 48.1581	   1.6349	   0.0000	
 47.5937	   2.6326	   0.0000	
 49.5225	   1.9859	   0.0000	
 50.4180	   0.3300	   0.0000	
 51.3252	   0.3453	   0.0000	
 47.0437	 -12.0192	   0.0000	
 53.8163	  -7.7089	   0.0000	
 48.4086	 -11.1533	   0.0000	
 46.1501	 -14.2616	   0.0000	
 50.3673	  -9.0764	   0.0000	
 36.0321	 -13.2021	   0.0000	
 47.0665	  -9.0508	   0.0000	
 41.3833	  -8.1048	   0.0000	
 38.6703	  -3.4534	   0.0000	
 42.0442	   0.9044	   0.0000	
 43.0441	   2.4912	   0.0000	
 41.8780	   4.2646	   0.0000	
 47.2186	   3.9608	   0.0000	
 46.8940	   5.9361	   0.0000	
 49.5655	   3.3990	   0.0000	
 51.7685	   1.3442	   0.0000	
 47.9342	   3.9318	   0.0000	
 54.2244	  -7.9641	   0.0000	
 49.9033	  -8.2386	   0.0000	
 50.8825	  -9.4130	   0.0000	
 39.4132	 -11.8452	   0.0000	
 50.1093	  -1.5215	   0.0000	
 35.9203	 -15.3740	   0.0000	
 42.9949	  -5.8318	   0.0000	
 35.2885	  -1.6839	   0.0000	
 39.4373	  -2.9876	   0.0000	
 36.6907	  -2.9563	   0.0000	
 40.2869	   0.7209	   0.0000	
 40.6573	   3.7935	   0.0000	
 45.3004	   0.5171	   0.0000	
 42.9827	   5.4547	   0.0000	
 50.5829	   3.2844	   0.0000	
 51.2371	   2.3302	   0.0000	
 51.9294	   1.8841	   0.0000	
 50.8474	 -17.3571	   0.0000	
 51.9243	 -15.8999	   0.0000	
 45.7540	 -22.8128	   0.0000	
 27.4306	 -27.6371	   0.0000	
 64.8739	 -12.0909	   0.0000	
 21.8483	 -21.1521	   0.0000	
 33.9078	  -9.6168	   0.0000	
 38.7108	 -11.3267	   0.0000	
 27.7086	  -2.7720	   0.0000	
 36.2255	   4.1453	   0.0000	
 33.5722	   6.2591	   0.0000	
 34.7437	  10.8342	   0.0000	
 48.3605	   8.8932	   0.0000	
 35.6317	  15.8670	   0.0000	
 48.0746	  11.8446	   0.0000	
 51.0399	   7.1944	   0.0000	
 50.4160	   9.2609	   0.0000	
 61.0163	 -13.1339	   0.0000	
 46.7929	 -21.7109	   0.0000	
  4.6644	 -26.1772	   0.0000	
 59.7754	 -18.8285	   0.0000	
 40.4890	 -10.8312	   0.0000	
  9.4350	 -18.2066	   0.0000	
 39.4732	 -17.0081	   0.0000	
 18.9728	  -4.6157	   0.0000	
 24.5986	  -4.1894	   0.0000	
 23.0943	  -1.6724	   0.0000	
 29.0189	   6.0934	   0.0000	
 25.6048	  10.2893	   0.0000	
 39.1705	   9.1234	   0.0000	
 41.2731	  14.6488	   0.0000	
 25.8637	  19.7808	   0.0000	
 51.2357	  13.3832	   0.0000	
 58.7832	   7.4481	   0.0000	
 17.6148	 -58.5967	   0.0000	
 45.5657	 -48.2101	   0.0000	
 15.4642	 -44.6968	   0.0000	
 49.3487	 -38.8208	   0.0000	
-19.7831	 -32.5976	   0.0000	
 41.9837	 -23.4036	   0.0000	
-11.6575	 -17.5280	   0.0000	
 21.6110	 -11.4971	   0.0000	
  2.1750	  -3.7183	   0.0000	
 15.9839	   3.6374	   0.0000	
  6.1803	   9.7755	   0.0000	
 18.0721	  16.3224	   0.0000	
  7.5700	  22.8961	   0.0000	
 36.9393	  29.9204	   0.0000	
 25.5075	  36.0853	   0.0000	
 32.3932	  41.0669	   0.0000	
 29.7771	  45.3336	   0.0000	
 -0.0000	   0.0000	   0.0000	
  0.0000	   0.0000	   0.0000	
  0.0000	   0.0000	   0.0000	
 -0.0000	   0.0000	   0.0000	
 -0.0000	  -0.0000	   0.0000	
 -0.0000	   0.0000	   0.0000	
 -0.0000	   0.0000	   0.0000	
 -0.0000	  -0.0000	   0.0000	
  0.0000	   0.0000	   0.0000	
 -0.0000	   0.0000	   0.0000	
 -0.0000	  -0.0000	   0.0000	
 -0.0000	  -0.0000	   0.0000	
  0.0000	  -0.0000	   0.0000	
  0.0000	   0.0000	   0.0000	
  0.0000	   0.0000	   0.0000	
  0.0000	   0.0000	   0.0000	
  0.0000	  -0.0000	   0.0000	
 51.3000	  -0.0000	   0.0000	
 51.3000	  -0.0000	   0.0000	
 28.0672	  -2.5365	   0.0000	
 51.3668	   0.3487	   0.0000	
-18.7927	   3.4929	   0.0000	
 51.3878	   0.6835	   0.0000	
 46.7524	 -26.5136	   0.0000	
 51.7637	   1.1247	   0.0000	
 15.7611	 -10.9107	   0.0000	
 51.1045	   1.0483	   0.0000	
 47.4537	 -29.2953	   0.0000	
 50.8703	   1.1242	   0.0000	
 40.9601	 -21.6437	   0.0000	
 50.9155	   1.2800	   0.0000	
 40.5935	 -19.0037	   0.0000	
 50.7975	   1.3951	   0.0000	
 41.5904	 -17.9091	   0.0000	
 50.5615	   1.5594	   0.0000	
 40.4234	 -15.8509	   0.0000	
 50.9761	   2.2280	   0.0000	
 44.0791	 -16.3035	   0.0000	
 50.1271	   2.2784	   0.0000	
 44.5283	 -15.5948	   0.0000	
 49.9303	   3.1260	   0.0000	
 44.3036	 -14.8412	   0.0000	
 48.5363	   3.5621	   0.0000	
 46.7750	 -16.0175	   0.0000	
 49.7874	   5.9459	   0.0000	
 43.0527	 -13.9098	   0.0000	
 44.6537	   5.3271	   0.0000	
 51.1022	 -19.6950	   0.0000	
 50.8235	  12.6528	   0.0000	
 45.9691	 -18.4576	   0.0000	
 43.5790	  14.0507	   0.0000	
 73.0464	 -28.9698	   0.0000	
 71.4834	  24.8962	   0.0000	
  0.0000	   0.0000	   0.0000	
 -0.0000	   0.0000	   0.0000	
 54.1797	  -0.0000	   0.0000	
 54.2287	  -0.0000	   0.0000	
 41.3328	   2.0983	   0.0000	
 53.3705	  -0.1530	   0.0000	
 45.1640	   2.0960	   0.0000	
 52.7397	  -0.2799	   0.0000	
 46.5487	   1.7317	   0.0000	
 52.6985	  -0.1946	   0.0000	
 48.1493	   0.9942	   0.0000	
 52.9865	  -0.0003	   0.0000	
 49.3974	   0.4179	   0.0000	
 53.1020	   0.1259	   0.0000	
 50.0929	  -0.1365	   0.0000	
 52.8574	   0.0922	   0.0000	
 48.5323	   0.2006	   0.0000	
 53.4265	   0.3743	   0.0000	
 51.6697	  -1.1526	   0.0000	
 54.5756	   0.8911	   0.0000	
 52.1616	  -1.2702	   0.0000	
 54.7792	   1.3159	   0.0000	
 52.8437	  -1.6289	   0.0000	
 55.0001	   2.0782	   0.0000	
 55.2014	  -2.4136	   0.0000	
 57.1289	   2.6679	   0.0000	
 54.3959	  -2.4714	   0.0000	
 56.6193	   2.8347	   0.0000	
 56.7020	  -3.1158	   0.0000	
 55.5236	   2.0587	   0.0000	
 60.7296	  -3.6741	   0.0000	
 64.7041	   5.1172	   0.0000	
 62.9383	  -3.9823	   0.0000	
 56.9876	   2.8533	   0.0000	
 77.2160	  -6.5563	   0.0000	
 79.4265	   8.2284	   0.0000	
 37.3887	   1.0911	   0.0000	
 38.1182	   1.6646	   0.0000	
 -0.0000	   0.0000	   0.0000	
 -0.0000	  -0.0000	   0.0000	
 47.0720	  -0.0000	   0.0000	
 52.6411	   0.0000	   0.0000	
 48.6888	  -0.7217	   0.0000	
 52.4082	  -0.2011	   0.0000	
 48.7707	  -0.9588	   0.0000	
 52.3737	  -0.4007	   0.0000	
 49.3680	  -1.0394	   0.0000	
 52.6328	  -0.6382	   0.0000	
 50.3366	  -1.1350	   0.0000	
 52.5657	  -0.9173	   0.0000	
 49.5001	  -0.9424	   0.0000	
 52.7945	  -1.2152	   0.0000	
 49.5482	  -0.6486	   0.0000	
 52.4753	  -1.7485	   0.0000	
 50.4571	  -0.3541	   0.0000	
 53.2029	  -2.2080	   0.0000	
 51.4240	   0.0843	   0.0000	
 54.1665	  -2.8096	   0.0000	
 51.3378	   0.7942	   0.0000	
 53.3936	  -3.7927	   0.0000	
 53.0675	   1.7777	   0.0000	
 55.2726	  -4.7011	   0.0000	
 53.8762	   3.1249	   0.0000	
 55.9847	  -5.8791	   0.0000	
 52.1536	   4.8841	   0.0000	
 53.1126	  -7.6704	   0.0000	
 54.6532	   7.4418	   0.0000	
 60.0443	 -10.0820	   0.0000	
 55.1937	  10.5010	   0.0000	
 56.7188	 -12.9050	   0.0000	
 72.4517	  15.0099	   0.0000	
 72.2159	 -15.8314	   0.0000	
 59.6611	  16.8032	   0.0000	
 62.2090	 -16.7924	   0.0000	
 34.6550	  15.4704	   0.0000	
 36.7754	 -15.2844	   0.0000	
 19.2675	  11.2230	   0.0000	
 18.3802	 -10.9805	   0.0000	
 49.0759	   0.0000	   0.0000	
 50.4925	   0.0000	   0.0000	
 48.5336	  -0.1742	   0.0000	
 50.5258	  -0.2017	   0.0000	
 48.0732	  -0.1156	   0.0000	
 50.6819	  -0.3948	   0.0000	
 48.0637	  -0.0243	   0.0000	
 50.5290	  -0.5263	   0.0000	
 48.3351	   0.2039	   0.0000	
 50.7271	  -0.7437	   0.0000	
 48.2163	   0.3513	   0.0000	
 50.3854	  -0.8486	   0.0000	
 48.4142	   0.4199	   0.0000	
 50.6246	  -1.0680	   0.0000	
 48.5406	   0.4934	   0.0000	
 50.4522	  -1.2242	   0.0000	
 47.8691	   0.4706	   0.0000	
 49.8910	  -1.3412	   0.0000	
 48.9641	   0.7560	   0.0000	
 50.8842	  -1.7278	   0.0000	
 47.8568	   0.6944	   0.0000	
 49.8465	  -1.7902	   0.0000	
 46.7418	   0.8554	   0.0000	
 48.6671	  -2.2528	   0.0000	
 48.8594	   1.2611	   0.0000	
 50.5617	  -2.6732	   0.0000	
 46.3557	   1.2263	   0.0000	
 48.5966	  -2.6738	   0.0000	
 45.0165	   1.7825	   0.0000	
 48.0385	  -4.2045	   0.0000	
 45.6380	   2.5291	   0.0000	
 48.2972	  -5.7107	   0.0000	
 51.3865	   8.1176	   0.0000	
 53.6217	 -11.2623	   0.0000	
 45.1274	   8.3985	   0.0000	
 49.0928	 -13.0007	   0.0000	
 33.0852	   5.1932	   0.0000	
 33.2841	  -9.6731	   0.0000	
 48.0122	  -0.0000	   0.0000	
 49.1335	   0.0000	   0.0000	
 48.3333	   0.1645	   0.0000	
 49.3059	  -0.1581	   0.0000	
 48.4275	   0.2947	   0.0000	
 49.3531	  -0.2908	   0.0000	
 48.4068	   0.3667	   0.0000	
 49.3665	  -0.4166	   0.0000	
 48.4201	   0.4255	   0.0000	
 49.3981	  -0.5701	   0.0000	
 48.4444	   0.3833	   0.0000	
 49.4178	  -0.7475	   0.0000	
 48.2853	   0.2993	   0.0000	
 49.4997	  -0.9586	   0.0000	
 48.2505	   0.3018	   0.0000	
 49.2659	  -1.0669	   0.0000	
 48.4902	   0.4285	   0.0000	
 49.4618	  -1.3223	   0.0000	
 48.1360	   0.3991	   0.0000	
 49.2466	  -1.4628	   0.0000	
 48.1665	   0.4278	   0.0000	
 49.2776	  -1.6630	   0.0000	
 48.1552	   0.6419	   0.0000	
 49.1487	  -1.9408	   0.0000	
 47.7294	   0.4996	   0.0000	
 48.7938	  -1.9893	   0.0000	
 48.1512	   0.7539	   0.0000	
 49.1277	  -2.1914	   0.0000	
 47.4322	   0.6844	   0.0000	
 48.3601	  -2.3123	   0.0000	
 46.3571	   0.1310	   0.0000	
 47.2850	  -1.9728	   0.0000	
 47.0575	  -0.0337	   0.0000	
 47.1972	  -1.8006	   0.0000	
 44.1734	  -1.2006	   0.0000	
 45.7050	  -1.7587	   0.0000	
 44.4762	   2.0657	   0.0000	
 43.6152	  -4.3692	   0.0000	
 48.2089	  -0.0000	   0.0000	
 48.7305	   0.0000	   0.0000	
 48.1839	  -0.0364	   0.0000	
 48.7570	  -0.0369	   0.0000	
 48.2084	  -0.0654	   0.0000	
 48.7833	  -0.0733	   0.0000	
 48.2499	  -0.0904	   0.0000	
 48.7950	  -0.1071	   0.0000	
 48.2172	  -0.1554	   0.0000	
 48.8468	  -0.1580	   0.0000	
 48.1408	  -0.1690	   0.0000	
 48.8286	  -0.2056	   0.0000	
 48.1697	  -0.0966	   0.0000	
 48.8331	  -0.2826	   0.0000	
 48.1589	  -0.0506	   0.0000	
 48.8365	  -0.3647	   0.0000	
 48.1554	   0.0407	   0.0000	
 48.8135	  -0.4500	   0.0000	
 47.9671	  -0.0034	   0.0000	
 48.6749	  -0.4935	   0.0000	
 48.0561	   0.0860	   0.0000	
 48.7904	  -0.6980	   0.0000	
 47.7838	   0.0436	   0.0000	
 48.5836	  -0.8064	   0.0000	
 47.8847	   0.1721	   0.0000	
 48.6003	  -1.0245	   0.0000	
 47.5801	   0.0817	   0.0000	
 48.2845	  -1.1114	   0.0000	
 47.4524	   0.2047	   0.0000	
 48.1566	  -1.3618	   0.0000	
 47.2879	   0.1509	   0.0000	
 47.8196	  -1.4774	   0.0000	
 46.9712	   0.1573	   0.0000	
 47.5738	  -1.7166	   0.0000	
 47.8727	   0.1768	   0.0000	
 47.8520	  -1.7130	   0.0000	
 45.0371	  -1.1326	   0.0000	
 45.6380	  -0.6504	   0.0000	
  0.0000	   0.0000	   0.0000	
  0.0000	   0.0000	   0.0000	
 -0.0000	   0.0000	   0.0000	
 -0.0000	  -0.0000	   0.0000	
 -0.0000	   0.0000	   0.0000	
 -0.0000	   0.0000	   0.0000	
  0.0000	  -0.0000	   0.0000	
  0.0000	  -0.0000	   0.0000	
  0.0000	  -0.0000	   0.0000	
  0.0000	  -0.0000	   0.0000	
  0.0000	  -0.0000	   0.0000	
 -0.0000	  -0.0000	   0.0000	
  0.0000	   0.0000	   0.0000	
  0.0000	  -0.0000	   0.0000	
  0.0000	  -0.0000	   0.0000	
  0.0000	   0.0000	   0.0000	
  0.0000	   0.0000	   0.0000	
  0.0000	   0.0000	   0.0000	
 27.0409	  11.2456	   0.0000	
 23.3012	 -10.7983	   0.0000	
 27.4377	  10.3506	   0.0000	
 28.8524	 -10.2729	   0.0000	
 23.6119	   9.1099	   0.0000	
 26.4702	  -8.9647	   0.0000	
 20.8783	   7.7939	   0.0000	
 23.0384	  -7.3332	   0.0000	
 18.5163	   6.2376	   0.0000	
 19.2771	  -5.6098	   0.0000	
 16.7773	   4.7575	   0.0000	
 17.5502	  -3.9461	   0.0000	
 15.3269	   3.2251	   0.0000	
 16.1867	  -2.2520	   0.0000	
  0.0000	   0.0000	   0.0000	
  0.0000	   0.0000	   0.0000	
 36.9319	   4.0877	   0.0000	
 32.7480	  -8.4737	   0.0000	
 36.7639	   3.2006	   0.0000	
 33.7332	  -7.4201	   0.0000	
 37.4235	   2.3163	   0.0000	
 35.8022	  -6.7750	   0.0000	
 37.8701	   1.4443	   0.0000	
 36.5247	  -6.1062	   0.0000	
 38.4443	   0.5319	   0.0000	
 37.5336	  -5.4096	   0.0000	
 38.5934	  -0.4197	   0.0000	
 38.0409	  -4.6508	   0.0000	
 38.7604	  -1.4283	   0.0000	
 38.3596	  -3.8613	   0.0000	
  0.0000	   0.0000	   0.0000	
  0.0000	   0.0000	   0.0000	
 48.2023	   0.3806	   0.0000	
 46.5039	  -2.6866	   0.0000	
 48.8048	   0.1719	   0.0000	
 48.7318	  -2.3297	   0.0000	
 48.2855	   0.0047	   0.0000	
 48.6942	  -2.0825	   0.0000	
 48.1005	  -0.1944	   0.0000	
 48.4842	  -1.7491	   0.0000	
 47.9146	  -0.3374	   0.0000	
 48.3087	  -1.5547	   0.0000	
 47.7821	  -0.4813	   0.0000	
 48.0269	  -1.2864	   0.0000	
 47.6699	  -0.6341	   0.0000	
 47.8549	  -1.1371	   0.0000	
  0.0000	   0.0000	   0.0000	
  0.0000	   0.0000	   0.0000	
 44.6897	  -1.6601	   0.0000	
 45.0491	  -0.0780	   0.0000	
 46.3151	  -1.5695	   0.0000	
 46.7299	  -0.1348	   0.0000	
 46.2561	  -1.4332	   0.0000	
 46.7645	  -0.3018	   0.0000	
 46.0266	  -1.3279	   0.0000	
 46.2859	  -0.4274	   0.0000	
 46.4554	  -1.2426	   0.0000	
 46.5681	  -0.5969	   0.0000	
 46.0141	  -1.1498	   0.0000	
 46.1398	  -0.7287	   0.0000	
 46.5887	  -1.1173	   0.0000	
 46.5662	  -0.8257	   0.0000	
 -0.0000	  -0.0000	   0.0000	
  0.0000	  -0.0000	   0.0000	
 -0.0000	   0.0000	   0.0000	
 16.1378	   1.7228	   0.0000	
 15.6249	   0.5796	   0.0000	
 15.0816	  -0.5831	   0.0000	
 39.0362	  -2.3025	   0.0000	
 38.8110	  -2.6165	   0.0000	
 38.5536	  -3.0525	   0.0000	
 47.3372	  -0.8391	   0.0000	
 47.8168	  -0.8507	   0.0000	
 48.1630	  -0.9241	   0.0000	
 46.3630	  -1.0570	   0.0000	
 45.8942	  -0.9979	   0.0000	
 46.3592	  -0.9058	   0.0000	
 47.1382	   0.3385	   0.0000	
 47.3559	  -1.8242	   0.0000	
 46.6403	   0.2570	   0.0000	
 46.9946	  -1.7912	   0.0000	
 46.2756	   0.0928	   0.0000	
 46.5990	  -1.7128	   0.0000	
 47.2165	  -0.2642	   0.0000	
 47.5886	  -1.4182	   0.0000	
 46.8659	  -0.4246	   0.0000	
 47.0843	  -1.2879	   0.0000	
 47.0177	  -0.5839	   0.0000	
 47.0200	  -1.1984	   0.0000	
 47.0929	  -0.7023	   0.0000	
 47.1678	  -1.0405	   0.0000	
 47.1251	  -0.8067	   0.0000	
 46.9694	  -0.9235	   0.0000	
 47.4988	  -0.0127	   0.0000	
 47.7830	  -1.6154	   0.0000	
 47.6687	   0.0121	   0.0000	