# vtk DataFile Version 3.0 
Results 
ASCII 
DATASET UNSTRUCTURED_GRID 
POINTS 	    1451 float 
  0.0000	   0.6000	  0.0000	 
  0.0000	   1.2000	  0.0000	 
  0.0000	   1.8000	  0.0000	 
  0.0000	   2.4000	  0.0000	 
  0.0000	   3.0000	  0.0000	 
  0.0000	   3.6000	  0.0000	 
  0.0000	   4.2000	  0.0000	 
  0.0000	   4.8000	  0.0000	 
  0.0000	   5.4000	  0.0000	 
  0.0000	   6.0000	  0.0000	 
  0.0000	   6.6000	  0.0000	 
  0.0000	   7.2000	  0.0000	 
  0.0000	   7.8000	  0.0000	 
  0.0000	   8.4000	  0.0000	 
  0.0000	   9.0000	  0.0000	 
  0.0000	   9.6000	  0.0000	 
  0.0000	  10.2000	  0.0000	 
  0.0000	  10.8000	  0.0000	 
  0.0000	  11.4000	  0.0000	 
  0.2250	   0.8475	  0.0000	 
  0.2250	   1.4200	  0.0000	 
  0.2250	   1.9925	  0.0000	 
  0.2250	   2.5650	  0.0000	 
  0.2250	   3.1375	  0.0000	 
  0.2250	   3.7100	  0.0000	 
  0.2250	   4.2825	  0.0000	 
  0.2250	   4.8550	  0.0000	 
  0.2250	   5.4275	  0.0000	 
  0.2250	   6.0000	  0.0000	 
  0.2250	   6.5725	  0.0000	 
  0.2250	   7.1450	  0.0000	 
  0.2250	   7.7175	  0.0000	 
  0.2250	   8.2900	  0.0000	 
  0.2250	   8.8625	  0.0000	 
  0.2250	   9.4350	  0.0000	 
  0.2250	  10.0075	  0.0000	 
  0.2250	  10.5800	  0.0000	 
  0.2250	  11.1525	  0.0000	 
  0.4500	   1.0950	  0.0000	 
  0.4500	   1.6400	  0.0000	 
  0.4500	   2.1850	  0.0000	 
  0.4500	   2.7300	  0.0000	 
  0.4500	   3.2750	  0.0000	 
  0.4500	   3.8200	  0.0000	 
  0.4500	   4.3650	  0.0000	 
  0.4500	   4.9100	  0.0000	 
  0.4500	   5.4550	  0.0000	 
  0.4500	   6.0000	  0.0000	 
  0.4500	   6.5450	  0.0000	 
  0.4500	   7.0900	  0.0000	 
  0.4500	   7.6350	  0.0000	 
  0.4500	   8.1800	  0.0000	 
  0.4500	   8.7250	  0.0000	 
  0.4500	   9.2700	  0.0000	 
  0.4500	   9.8150	  0.0000	 
  0.4500	  10.3600	  0.0000	 
  0.4500	  10.9050	  0.0000	 
  0.6750	   1.3425	  0.0000	 
  0.6750	   1.8600	  0.0000	 
  0.6750	   2.3775	  0.0000	 
  0.6750	   2.8950	  0.0000	 
  0.6750	   3.4125	  0.0000	 
  0.6750	   3.9300	  0.0000	 
  0.6750	   4.4475	  0.0000	 
  0.6750	   4.9650	  0.0000	 
  0.6750	   5.4825	  0.0000	 
  0.6750	   6.0000	  0.0000	 
  0.6750	   6.5175	  0.0000	 
  0.6750	   7.0350	  0.0000	 
  0.6750	   7.5525	  0.0000	 
  0.6750	   8.0700	  0.0000	 
  0.6750	   8.5875	  0.0000	 
  0.6750	   9.1050	  0.0000	 
  0.6750	   9.6225	  0.0000	 
  0.6750	  10.1400	  0.0000	 
  0.6750	  10.6575	  0.0000	 
  0.9000	   1.5900	  0.0000	 
  0.9000	   2.0800	  0.0000	 
  0.9000	   2.5700	  0.0000	 
  0.9000	   3.0600	  0.0000	 
  0.9000	   3.5500	  0.0000	 
  0.9000	   4.0400	  0.0000	 
  0.9000	   4.5300	  0.0000	 
  0.9000	   5.0200	  0.0000	 
  0.9000	   5.5100	  0.0000	 
  0.9000	   6.0000	  0.0000	 
  0.9000	   6.4900	  0.0000	 
  0.9000	   6.9800	  0.0000	 
  0.9000	   7.4700	  0.0000	 
  0.9000	   7.9600	  0.0000	 
  0.9000	   8.4500	  0.0000	 
  0.9000	   8.9400	  0.0000	 
  0.9000	   9.4300	  0.0000	 
  0.9000	   9.9200	  0.0000	 
  0.9000	  10.4100	  0.0000	 
  1.1250	   1.8375	  0.0000	 
  1.1250	   2.3000	  0.0000	 
  1.1250	   2.7625	  0.0000	 
  1.1250	   3.2250	  0.0000	 
  1.1250	   3.6875	  0.0000	 
  1.1250	   4.1500	  0.0000	 
  1.1250	   4.6125	  0.0000	 
  1.1250	   5.0750	  0.0000	 
  1.1250	   5.5375	  0.0000	 
  1.1250	   6.0000	  0.0000	 
  1.1250	   6.4625	  0.0000	 
  1.1250	   6.9250	  0.0000	 
  1.1250	   7.3875	  0.0000	 
  1.1250	   7.8500	  0.0000	 
  1.1250	   8.3125	  0.0000	 
  1.1250	   8.7750	  0.0000	 
  1.1250	   9.2375	  0.0000	 
  1.1250	   9.7000	  0.0000	 
  1.1250	  10.1625	  0.0000	 
  1.3500	   2.0850	  0.0000	 
  1.3500	   2.5200	  0.0000	 
  1.3500	   2.9550	  0.0000	 
  1.3500	   3.3900	  0.0000	 
  1.3500	   3.8250	  0.0000	 
  1.3500	   4.2600	  0.0000	 
  1.3500	   4.6950	  0.0000	 
  1.3500	   5.1300	  0.0000	 
  1.3500	   5.5650	  0.0000	 
  1.3500	   6.0000	  0.0000	 
  1.3500	   6.4350	  0.0000	 
  1.3500	   6.8700	  0.0000	 
  1.3500	   7.3050	  0.0000	 
  1.3500	   7.7400	  0.0000	 
  1.3500	   8.1750	  0.0000	 
  1.3500	   8.6100	  0.0000	 
  1.3500	   9.0450	  0.0000	 
  1.3500	   9.4800	  0.0000	 
  1.3500	   9.9150	  0.0000	 
  1.5750	   2.3325	  0.0000	 
  1.5750	   2.7400	  0.0000	 
  1.5750	   3.1475	  0.0000	 
  1.5750	   3.5550	  0.0000	 
  1.5750	   3.9625	  0.0000	 
  1.5750	   4.3700	  0.0000	 
  1.5750	   4.7775	  0.0000	 
  1.5750	   5.1850	  0.0000	 
  1.5750	   5.5925	  0.0000	 
  1.5750	   6.0000	  0.0000	 
  1.5750	   6.4075	  0.0000	 
  1.5750	   6.8150	  0.0000	 
  1.5750	   7.2225	  0.0000	 
  1.5750	   7.6300	  0.0000	 
  1.5750	   8.0375	  0.0000	 
  1.5750	   8.4450	  0.0000	 
  1.5750	   8.8525	  0.0000	 
  1.5750	   9.2600	  0.0000	 
  1.5750	   9.6675	  0.0000	 
  1.8000	   2.5800	  0.0000	 
  1.8000	   2.9600	  0.0000	 
  1.8000	   3.3400	  0.0000	 
  1.8000	   3.7200	  0.0000	 
  1.8000	   4.1000	  0.0000	 
  1.8000	   4.4800	  0.0000	 
  1.8000	   4.8600	  0.0000	 
  1.8000	   5.2400	  0.0000	 
  1.8000	   5.6200	  0.0000	 
  1.8000	   6.0000	  0.0000	 
  1.8000	   6.3800	  0.0000	 
  1.8000	   6.7600	  0.0000	 
  1.8000	   7.1400	  0.0000	 
  1.8000	   7.5200	  0.0000	 
  1.8000	   7.9000	  0.0000	 
  1.8000	   8.2800	  0.0000	 
  1.8000	   8.6600	  0.0000	 
  1.8000	   9.0400	  0.0000	 
  1.8000	   9.4200	  0.0000	 
  2.0250	   2.8275	  0.0000	 
  2.0250	   3.1800	  0.0000	 
  2.0250	   3.5325	  0.0000	 
  2.0250	   3.8850	  0.0000	 
  2.0250	   4.2375	  0.0000	 
  2.0250	   4.5900	  0.0000	 
  2.0250	   4.9425	  0.0000	 
  2.0250	   5.2950	  0.0000	 
  2.0250	   5.6475	  0.0000	 
  2.0250	   6.0000	  0.0000	 
  2.0250	   6.3525	  0.0000	 
  2.0250	   6.7050	  0.0000	 
  2.0250	   7.0575	  0.0000	 
  2.0250	   7.4100	  0.0000	 
  2.0250	   7.7625	  0.0000	 
  2.0250	   8.1150	  0.0000	 
  2.0250	   8.4675	  0.0000	 
  2.0250	   8.8200	  0.0000	 
  2.0250	   9.1725	  0.0000	 
  2.2500	   3.0750	  0.0000	 
  2.2500	   3.4000	  0.0000	 
  2.2500	   3.7250	  0.0000	 
  2.2500	   4.0500	  0.0000	 
  2.2500	   4.3750	  0.0000	 
  2.2500	   4.7000	  0.0000	 
  2.2500	   5.0250	  0.0000	 
  2.2500	   5.3500	  0.0000	 
  2.2500	   5.6750	  0.0000	 
  2.2500	   6.0000	  0.0000	 
  2.2500	   6.3250	  0.0000	 
  2.2500	   6.6500	  0.0000	 
  2.2500	   6.9750	  0.0000	 
  2.2500	   7.3000	  0.0000	 
  2.2500	   7.6250	  0.0000	 
  2.2500	   7.9500	  0.0000	 
  2.2500	   8.2750	  0.0000	 
  2.2500	   8.6000	  0.0000	 
  2.2500	   8.9250	  0.0000	 
  2.4750	   3.3225	  0.0000	 
  2.4750	   3.6200	  0.0000	 
  2.4750	   3.9175	  0.0000	 
  2.4750	   4.2150	  0.0000	 
  2.4750	   4.5125	  0.0000	 
  2.4750	   4.8100	  0.0000	 
  2.4750	   5.1075	  0.0000	 
  2.4750	   5.4050	  0.0000	 
  2.4750	   5.7025	  0.0000	 
  2.4750	   6.0000	  0.0000	 
  2.4750	   6.2975	  0.0000	 
  2.4750	   6.5950	  0.0000	 
  2.4750	   6.8925	  0.0000	 
  2.4750	   7.1900	  0.0000	 
  2.4750	   7.4875	  0.0000	 
  2.4750	   7.7850	  0.0000	 
  2.4750	   8.0825	  0.0000	 
  2.4750	   8.3800	  0.0000	 
  2.4750	   8.6775	  0.0000	 
  2.7000	   3.5700	  0.0000	 
  2.7000	   3.8400	  0.0000	 
  2.7000	   4.1100	  0.0000	 
  2.7000	   4.3800	  0.0000	 
  2.7000	   4.6500	  0.0000	 
  2.7000	   4.9200	  0.0000	 
  2.7000	   5.1900	  0.0000	 
  2.7000	   5.4600	  0.0000	 
  2.7000	   5.7300	  0.0000	 
  2.7000	   6.0000	  0.0000	 
  2.7000	   6.2700	  0.0000	 
  2.7000	   6.5400	  0.0000	 
  2.7000	   6.8100	  0.0000	 
  2.7000	   7.0800	  0.0000	 
  2.7000	   7.3500	  0.0000	 
  2.7000	   7.6200	  0.0000	 
  2.7000	   7.8900	  0.0000	 
  2.7000	   8.1600	  0.0000	 
  2.7000	   8.4300	  0.0000	 
  2.9250	   3.8175	  0.0000	 
  2.9250	   4.0600	  0.0000	 
  2.9250	   4.3025	  0.0000	 
  2.9250	   4.5450	  0.0000	 
  2.9250	   4.7875	  0.0000	 
  2.9250	   5.0300	  0.0000	 
  2.9250	   5.2725	  0.0000	 
  2.9250	   5.5150	  0.0000	 
  2.9250	   5.7575	  0.0000	 
  2.9250	   6.0000	  0.0000	 
  2.9250	   6.2425	  0.0000	 
  2.9250	   6.4850	  0.0000	 
  2.9250	   6.7275	  0.0000	 
  2.9250	   6.9700	  0.0000	 
  2.9250	   7.2125	  0.0000	 
  2.9250	   7.4550	  0.0000	 
  2.9250	   7.6975	  0.0000	 
  2.9250	   7.9400	  0.0000	 
  2.9250	   8.1825	  0.0000	 
  3.1500	   4.0650	  0.0000	 
  3.1500	   4.2800	  0.0000	 
  3.1500	   4.4950	  0.0000	 
  3.1500	   4.7100	  0.0000	 
  3.1500	   4.9250	  0.0000	 
  3.1500	   5.1400	  0.0000	 
  3.1500	   5.3550	  0.0000	 
  3.1500	   5.5700	  0.0000	 
  3.1500	   5.7850	  0.0000	 
  3.1500	   6.0000	  0.0000	 
  3.1500	   6.2150	  0.0000	 
  3.1500	   6.4300	  0.0000	 
  3.1500	   6.6450	  0.0000	 
  3.1500	   6.8600	  0.0000	 
  3.1500	   7.0750	  0.0000	 
  3.1500	   7.2900	  0.0000	 
  3.1500	   7.5050	  0.0000	 
  3.1500	   7.7200	  0.0000	 
  3.1500	   7.9350	  0.0000	 
  3.3750	   4.3125	  0.0000	 
  3.3750	   4.5000	  0.0000	 
  3.3750	   4.6875	  0.0000	 
  3.3750	   4.8750	  0.0000	 
  3.3750	   5.0625	  0.0000	 
  3.3750	   5.2500	  0.0000	 
  3.3750	   5.4375	  0.0000	 
  3.3750	   5.6250	  0.0000	 
  3.3750	   5.8125	  0.0000	 
  3.3750	   6.0000	  0.0000	 
  3.3750	   6.1875	  0.0000	 
  3.3750	   6.3750	  0.0000	 
  3.3750	   6.5625	  0.0000	 
  3.3750	   6.7500	  0.0000	 
  3.3750	   6.9375	  0.0000	 
  3.3750	   7.1250	  0.0000	 
  3.3750	   7.3125	  0.0000	 
  3.3750	   7.5000	  0.0000	 
  3.3750	   7.6875	  0.0000	 
  3.6000	   4.5600	  0.0000	 
  3.6000	   4.7200	  0.0000	 
  3.6000	   4.8800	  0.0000	 
  3.6000	   5.0400	  0.0000	 
  3.6000	   5.2000	  0.0000	 
  3.6000	   5.3600	  0.0000	 
  3.6000	   5.5200	  0.0000	 
  3.6000	   5.6800	  0.0000	 
  3.6000	   5.8400	  0.0000	 
  3.6000	   6.0000	  0.0000	 
  3.6000	   6.1600	  0.0000	 
  3.6000	   6.3200	  0.0000	 
  3.6000	   6.4800	  0.0000	 
  3.6000	   6.6400	  0.0000	 
  3.6000	   6.8000	  0.0000	 
  3.6000	   6.9600	  0.0000	 
  3.6000	   7.1200	  0.0000	 
  3.6000	   7.2800	  0.0000	 
  3.6000	   7.4400	  0.0000	 
  3.8250	   4.8075	  0.0000	 
  3.8250	   4.9400	  0.0000	 
  3.8250	   5.0725	  0.0000	 
  3.8250	   5.2050	  0.0000	 
  3.8250	   5.3375	  0.0000	 
  3.8250	   5.4700	  0.0000	 
  3.8250	   5.6025	  0.0000	 
[...]
POINT_DATA 	    1451 
VECTORS U float 
 50.0000	   0.0000	   0.0000	
 50.0000	   0.0000	   0.0000	
 50.0000	   0.0000	   0.0000	
 50.0000	   0.0000	   0.0000	
 50.0000	  -0.0000	   0.0000	
 50.0000	  -0.0000	   0.0000	
 50.0000	   0.0000	   0.0000	
 50.0000	  -0.0000	   0.0000	
 50.0000	  -0.0000	   0.0000	
 50.0000	   0.0000	   0.0000	
 50.0000	  -0.0000	   0.0000	
 50.0000	  -0.0000	   0.0000	
 50.0000	   0.0000	   0.0000	
 50.0000	   0.0000	   0.0000	
 50.0000	  -0.0000	   0.0000	
 50.0000	  -0.0000	   0.0000	
 50.0000	   0.0000	   0.0000	
 50.0000	   0.0000	   0.0000	
 50.0000	  -0.0000	   0.0000	
 48.7721	   7.7523	   0.0000	
 50.7455	  11.2943	   0.0000	
 50.1124	  16.3467	   0.0000	
 49.8248	  20.0314	   0.0000	
 50.4489	  14.1499	   0.0000	
 49.1112	  29.0182	   0.0000	
 49.1925	  35.9802	   0.0000	
 49.3437	  42.4543	   0.0000	
 49.6902	  45.9066	   0.0000	
 49.8386	  48.3000	   0.0000	
 49.7793	  47.9095	   0.0000	
 50.8368	  46.6790	   0.0000	
 50.3483	  40.2916	   0.0000	
 51.3979	  33.9368	   0.0000	
 49.8756	  30.4902	   0.0000	
 50.2469	  21.9168	   0.0000	
 50.2648	  24.2286	   0.0000	
 49.0058	  22.4899	   0.0000	
 50.8762	  20.8003	   0.0000	
 47.4406	  15.5639	   0.0000	
 45.1750	  27.8893	   0.0000	
 47.3100	  38.2603	   0.0000	
 53.9928	  29.5639	   0.0000	
 39.7774	  47.2898	   0.0000	
 44.0810	  48.8159	   0.0000	
 44.5414	  63.2361	   0.0000	
 46.7297	  71.8301	   0.0000	
 48.5689	  74.9760	   0.0000	
 48.7231	  76.8227	   0.0000	
 50.1760	  79.4578	   0.0000	
 51.4741	  79.8674	   0.0000	
 55.2916	  76.5851	   0.0000	
 56.2843	  60.9953	   0.0000	
 50.1509	  58.3401	   0.0000	
 56.9147	  55.8661	   0.0000	
 47.5638	  42.7120	   0.0000	
 51.8380	  45.4565	   0.0000	
 51.7412	  43.6395	   0.0000	
 39.6010	  27.4128	   0.0000	
 40.5226	  51.9829	   0.0000	
 56.1112	  41.9005	   0.0000	
 42.0380	  60.0514	   0.0000	
 44.6237	  54.9406	   0.0000	
 38.7219	  62.1822	   0.0000	
 42.3100	  66.5015	   0.0000	
 46.2444	  66.5931	   0.0000	
 47.5780	  68.8162	   0.0000	
 47.4577	  71.5894	   0.0000	
 49.4191	  74.8987	   0.0000	
 50.3091	  75.9670	   0.0000	
 54.1125	  81.9856	   0.0000	
 62.5150	  83.6514	   0.0000	
 51.8505	  75.5848	   0.0000	
 54.0976	  77.1073	   0.0000	
 58.3903	  74.8012	   0.0000	
 48.7576	  62.6378	   0.0000	
 50.2359	  63.0006	   0.0000	
 22.7872	  51.4949	   0.0000	
 54.1163	  49.2846	   0.0000	
 42.3835	  66.6760	   0.0000	
 43.5805	  64.7452	   0.0000	
 40.4358	  65.5284	   0.0000	
 38.3694	  64.2889	   0.0000	
 42.5641	  65.7705	   0.0000	
 45.6581	  68.5375	   0.0000	
 46.7129	  70.4458	   0.0000	
 46.7847	  72.3918	   0.0000	
 47.5795	  73.1525	   0.0000	
 49.4915	  77.0983	   0.0000	
 51.1513	  77.4833	   0.0000	
 59.3532	  80.5096	   0.0000	
 57.9992	  88.4571	   0.0000	
 50.3391	  85.9331	   0.0000	
 59.7513	  91.1768	   0.0000	
 55.5993	  88.6559	   0.0000	
 51.8347	  76.1013	   0.0000	
 42.4903	  51.3362	   0.0000	
 41.1017	  69.6594	   0.0000	
 42.3289	  70.3851	   0.0000	
 44.6015	  71.1865	   0.0000	
 40.4328	  66.8513	   0.0000	
 38.8320	  64.4100	   0.0000	
 41.6145	  66.6919	   0.0000	
 44.9016	  68.4689	   0.0000	
 45.3929	  70.7485	   0.0000	
 45.6685	  73.1272	   0.0000	
 47.8392	  75.0018	   0.0000	
 47.4385	  74.5570	   0.0000	
 50.6716	  79.0728	   0.0000	
 56.6997	  77.6035	   0.0000	
 54.5337	  83.5729	   0.0000	
 51.1950	  94.9671	   0.0000	
 53.0759	  93.2929	   0.0000	
 59.5464	 101.3299	   0.0000	
 60.1069	 101.7872	   0.0000	
 38.7339	  69.1398	   0.0000	
 40.8048	  70.7453	   0.0000	
 43.0771	  70.2601	   0.0000	
 45.9018	  69.5899	   0.0000	
 40.9076	  66.8530	   0.0000	
 38.7088	  66.3675	   0.0000	
 41.8283	  67.3450	   0.0000	
 43.9359	  69.4709	   0.0000	
 44.5413	  71.9339	   0.0000	
 44.4782	  73.9885	   0.0000	
 46.5669	  76.8243	   0.0000	
 47.6550	  78.5022	   0.0000	
 47.2738	  78.8670	   0.0000	
 55.8765	  82.7780	   0.0000	
 52.9756	  84.7426	   0.0000	
 46.3089	  90.4374	   0.0000	
 51.9567	  96.0353	   0.0000	
 52.2694	  99.5590	   0.0000	
 54.5648	 112.2558	   0.0000	
 40.8253	  61.8051	   0.0000	
 42.2574	  61.0501	   0.0000	
 44.3478	  61.6290	   0.0000	
 44.6907	  64.2367	   0.0000	
 39.8585	  64.8018	   0.0000	
 38.9552	  64.1078	   0.0000	
 40.6425	  66.7179	   0.0000	
 42.7177	  69.9078	   0.0000	
 43.0891	  72.1361	   0.0000	
 43.6786	  73.9677	   0.0000	
 45.3059	  74.7742	   0.0000	
 46.4317	  77.4335	   0.0000	
 47.4206	  79.0704	   0.0000	
 51.5568	  77.2094	   0.0000	
 53.1805	  84.3465	   0.0000	
 47.1894	  85.3851	   0.0000	
 46.5024	  83.6167	   0.0000	
 51.0315	  88.8080	   0.0000	
 45.6403	  94.9507	   0.0000	
 41.4724	  60.3377	   0.0000	
 42.8242	  60.6295	   0.0000	
 42.7658	  63.5243	   0.0000	
 42.0072	  68.0865	   0.0000	
 39.9209	  66.7740	   0.0000	
 38.1133	  67.0353	   0.0000	
 39.4228	  69.7298	   0.0000	
 41.6987	  71.4389	   0.0000	
 42.2120	  73.3819	   0.0000	
 42.3207	  75.5769	   0.0000	
 44.8367	  77.9996	   0.0000	
 44.7684	  78.0797	   0.0000	
 46.1661	  81.3462	   0.0000	
 51.8050	  80.9821	   0.0000	
 48.7913	  81.6249	   0.0000	
 49.5637	  89.0549	   0.0000	
 48.3065	  84.8978	   0.0000	
 46.0279	  83.9566	   0.0000	
 45.8953	  92.2833	   0.0000	
 42.5559	  59.1476	   0.0000	
 40.6644	  61.0711	   0.0000	
 40.0015	  64.8075	   0.0000	
 42.1496	  65.5388	   0.0000	
 38.6316	  65.9143	   0.0000	
 37.1538	  67.1221	   0.0000	
 38.8115	  68.5347	   0.0000	
 40.4915	  71.1994	   0.0000	
 40.6375	  73.8363	   0.0000	
 41.1223	  75.9412	   0.0000	
 43.3685	  77.7316	   0.0000	
 44.7872	  79.9776	   0.0000	
 43.8727	  80.0578	   0.0000	
 50.2345	  81.5261	   0.0000	
 50.0057	  83.5302	   0.0000	
 44.5807	  84.2817	   0.0000	
 50.6940	  88.5795	   0.0000	
 48.4194	  87.0821	   0.0000	
 40.5433	  90.3913	   0.0000	
 40.0482	  59.8746	   0.0000	
 37.7149	  62.1991	   0.0000	
 40.9719	  63.3096	   0.0000	
 39.9560	  65.4830	   0.0000	
 36.9274	  66.8879	   0.0000	
 36.7215	  67.3201	   0.0000	
 37.3029	  70.0043	   0.0000	
 38.7308	  73.0607	   0.0000	
 39.3099	  75.3655	   0.0000	
 39.8712	  76.9810	   0.0000	
 42.3469	  78.4811	   0.0000	
 42.9300	  79.4267	   0.0000	
 44.1999	  81.8727	   0.0000	
 47.6840	  79.2753	   0.0000	
 48.8762	  82.4977	   0.0000	
 47.6206	  83.6482	   0.0000	
 43.7220	  82.2189	   0.0000	
 51.0029	  87.1294	   0.0000	
 44.6050	  87.9094	   0.0000	
 36.9248	  62.1257	   0.0000	
 39.5504	  61.7655	   0.0000	
 38.7743	  63.5773	   0.0000	
 37.4024	  66.2003	   0.0000	
 36.2770	  66.6773	   0.0000	
 35.1429	  68.4164	   0.0000	
 35.4387	  70.8825	   0.0000	
 37.2124	  73.2241	   0.0000	
 38.0621	  75.1043	   0.0000	
 38.0123	  77.6763	   0.0000	
 41.4726	  80.2227	   0.0000	
 42.2376	  80.9524	   0.0000	
 42.5027	  81.8703	   0.0000	
 48.4369	  81.8055	   0.0000	
 46.1754	  81.6923	   0.0000	
 47.8666	  84.5982	   0.0000	
 46.4487	  85.0741	   0.0000	
 42.6925	  85.6855	   0.0000	
 48.7792	  91.1636	   0.0000	
 39.6017	  60.8717	   0.0000	
 36.9134	  62.3279	   0.0000	
 36.3213	  65.4728	   0.0000	
 36.0533	  66.3059	   0.0000	
 34.3073	  68.0352	   0.0000	
 33.4731	  69.5402	   0.0000	
 34.1419	  71.4999	   0.0000	
 35.8604	  73.7959	   0.0000	
 35.9222	  76.7057	   0.0000	
 36.2092	  79.1564	   0.0000	
 39.0779	  81.3578	   0.0000	
 41.4769	  83.8728	   0.0000	
 42.1620	  84.4314	   0.0000	
 46.1491	  82.5877	   0.0000	
 47.2910	  85.2227	   0.0000	
 44.6893	  85.4020	   0.0000	
 45.7578	  89.4682	   0.0000	
 46.7643	  88.8344	   0.0000	
 38.8664	  88.8805	   0.0000	
 35.8722	  57.8700	   0.0000	
 32.6392	  59.9855	   0.0000	
 35.4553	  63.9869	   0.0000	
 33.0856	  66.7340	   0.0000	
 32.1133	  69.4232	   0.0000	
 32.3347	  71.0087	   0.0000	
 32.1320	  73.1826	   0.0000	
 33.0601	  77.1133	   0.0000	
 33.4674	  80.4669	   0.0000	
 35.7765	  80.9256	   0.0000	
 37.6051	  80.7702	   0.0000	
 38.4288	  82.2574	   0.0000	
 41.8556	  85.1290	   0.0000	
 46.4668	  83.2212	   0.0000	
 44.1278	  84.5029	   0.0000	
 46.2701	  86.5137	   0.0000	
 41.3603	  87.5637	   0.0000	
 48.5802	  85.1557	   0.0000	
 48.5458	  78.7387	   0.0000	
 31.0084	  59.5729	   0.0000	
 30.3450	  60.8184	   0.0000	
 30.5317	  65.4232	   0.0000	
 29.8451	  67.0092	   0.0000	
 30.1925	  69.1778	   0.0000	
 30.2223	  71.2408	   0.0000	
 28.6198	  74.1448	   0.0000	
 29.8555	  77.1250	   0.0000	
 33.2426	  77.7723	   0.0000	
 31.8904	  81.0746	   0.0000	
 38.5256	  84.9925	   0.0000	
 36.4825	  83.4820	   0.0000	
 38.6413	  84.7613	   0.0000	
 45.8435	  84.5082	   0.0000	
 43.4784	  87.0708	   0.0000	
 43.2108	  88.4925	   0.0000	
 44.4668	  90.8260	   0.0000	
 47.3958	  83.8643	   0.0000	
 54.4695	  76.7471	   0.0000	
 27.2258	  58.3492	   0.0000	
 24.3895	  64.6214	   0.0000	
 27.9707	  69.1826	   0.0000	
 28.2479	  71.5668	   0.0000	
 28.0914	  73.2604	   0.0000	
 27.0551	  74.6397	   0.0000	
 26.6997	  75.0799	   0.0000	
 30.9259	  74.3787	   0.0000	
 29.5856	  76.8197	   0.0000	
 26.8076	  81.3026	   0.0000	
 33.0119	  86.0711	   0.0000	
 38.6372	  90.0173	   0.0000	
 37.8748	  88.3710	   0.0000	
 40.0286	  89.2460	   0.0000	
 41.4502	  96.6479	   0.0000	
 41.1041	  99.5919	   0.0000	
 42.7704	  97.7731	   0.0000	
 55.9482	  88.0817	   0.0000	
 54.2493	  77.6151	   0.0000	
 20.2481	  55.8282	   0.0000	
 23.7496	  60.3639	   0.0000	
 16.3032	  68.0077	   0.0000	
 24.7743	  78.5175	   0.0000	
 25.3616	  82.5748	   0.0000	
 27.6600	  83.7039	   0.0000	
 29.6661	  82.0403	   0.0000	
 27.6827	  84.0276	   0.0000	
 22.9322	  89.0893	   0.0000	
 28.7888	  87.9492	   0.0000	
 26.1420	  86.4755	   0.0000	
 30.0566	  92.7854	   0.0000	
 40.6875	  97.8580	   0.0000	
 36.2488	  95.7611	   0.0000	
 29.1939	 103.2541	   0.0000	
 38.5466	 104.0997	   0.0000	
 52.2008	  94.1339	   0.0000	
 49.7191	  85.4219	   0.0000	
 65.3636	  72.8480	   0.0000	
  7.0409	  50.6206	   0.0000	
  4.2656	  57.4559	   0.0000	
 16.1465	  64.4238	   0.0000	
 18.0022	  70.3062	   0.0000	
 24.5890	  74.2803	   0.0000	
 32.1890	  74.3655	   0.0000	
 25.2873	  74.1881	   0.0000	
 18.0851	  77.9519	   0.0000	
 25.5392	  77.3516	   0.0000	
 19.7543	  81.6745	   0.0000	
 29.1587	  87.5278	   0.0000	
 16.8980	  87.3126	   0.0000	
 24.7874	  95.8769	   0.0000	
 43.7511	  99.2042	   0.0000	
 21.4344	 108.7513	   0.0000	
 33.0862	 113.3244	   0.0000	
 40.8534	 104.6861	   0.0000	
 64.2794	  97.3953	   0.0000	
 71.2471	  83.0139	   0.0000	
  0.1592	  57.3369	   0.0000	
  5.7648	  67.2351	   0.0000	
 10.8805	  74.0280	   0.0000	
 25.8276	  79.9382	   0.0000	
 33.6582	  83.5229	   0.0000	
 22.5085	  81.9839	   0.0000	
 12.2923	  88.6302	   0.0000	
 21.2097	  92.0941	   0.0000	
 16.0933	  97.8515	   0.0000	
 15.2161	 101.9367	   0.0000	
 14.6788	 104.7622	   0.0000	
 19.9500	 112.6347	   0.0000	
  3.4880	 117.3280	   0.0000	
 19.8685	 122.2923	   0.0000	
 15.5482	 136.7056	   0.0000	
  6.5702	 148.0232	   0.0000	
 28.7141	 140.9011	   0.0000	
 63.1797	 120.4962	   0.0000	
 71.7409	  95.1574	   0.0000	
 -3.1837	  37.0356	   0.0000	
  4.4481	  43.7565	   0.0000	
 16.7730	  51.5473	   0.0000	
 24.1805	  59.8132	   0.0000	
  1.3425	  67.4154	   0.0000	
 -0.1076	  68.5576	   0.0000	
 10.0938	  73.0747	   0.0000	
 -0.2411	  77.2944	   0.0000	
  7.7047	  80.7916	   0.0000	
  0.0022	  84.2285	   0.0000	
  8.7495	  88.0209	   0.0000	
 -1.4226	  91.3873	   0.0000	
  7.9354	  93.9691	   0.0000	
 -1.1032	  97.0465	   0.0000	
 -0.0783	  96.4593	   0.0000	
 -4.6521	 101.5652	   0.0000	
 -0.7822	  99.8613	   0.0000	
 23.4144	  95.7869	   0.0000	
 62.6389	  84.0706	   0.0000	
 -0.0000	  -0.0000	   0.0000	
  0.0000	   0.0000	   0.0000	
 -0.0000	   0.0000	   0.0000	
 -0.0000	   0.0000	   0.0000	
  0.0000	  -0.0000	   0.0000	
 -0.0000	   0.0000	   0.0000	
  0.0000	   0.0000	   0.0000	
  0.0000	  -0.0000	   0.0000	
 -0.0000	  -0.0000	   0.0000	
  0.0000	   0.0000	   0.0000	
  0.0000	   0.0000	   0.0000	
  0.0000	  -0.0000	   0.0000	
 -0.0000	  -0.0000	   0.0000	
 -0.0000	   0.0000	   0.0000	
 -0.0000	  -0.0000	   0.0000	
 -0.0000	  -0.0000	   0.0000	
  0.0000	  -0.0000	   0.0000	
 -0.0000	  -0.0000	   0.0000	
  0.0000	   0.0000	   0.0000	
 50.0000	  50.0000	   0.0000	
 50.0000	  -0.0000	   0.0000	
 69.1541	  49.8975	   0.0000	
 49.8933	  17.0300	   0.0000	
 86.5649	  49.8948	   0.0000	
 52.1586	  34.6162	   0.0000	
 78.8863	  55.8065	   0.0000	
 59.0218	  53.0960	   0.0000	
 74.0491	  60.8564	   0.0000	
 61.1357	  70.0906	   0.0000	
 44.0877	  80.2584	   0.0000	
 53.9838	  81.1041	   0.0000	
 48.5304	  74.5340	   0.0000	
 74.2689	 102.2171	   0.0000	
 44.6737	  74.1649	   0.0000	
 65.9797	  92.4222	   0.0000	
 48.9311	  68.4522	   0.0000	
 53.7206	  82.1001	   0.0000	
 47.9599	  66.7993	   0.0000	
 55.7445	  80.8145	   0.0000	
 47.8362	  64.4880	   0.0000	
 50.7798	  75.8100	   0.0000	
 43.3164	  64.6610	   0.0000	
 55.4249	  76.5411	   0.0000	
 39.0485	  63.7406	   0.0000	
 61.5971	  76.6588	   0.0000	
 40.9321	  58.9000	   0.0000	
 48.7372	  67.8327	   0.0000	
 34.3491	  57.3652	   0.0000	
 57.3991	  68.8158	   0.0000	
 28.4506	  54.8670	   0.0000	
 62.8600	  67.3040	   0.0000	
 18.1783	  53.0335	   0.0000	
 67.6754	  64.4447	   0.0000	
 17.0809	  43.2469	   0.0000	
 77.0316	  60.7462	   0.0000	
-12.0298	  45.6719	   0.0000	
102.1312	  64.1681	   0.0000	
-13.2966	  28.2170	   0.0000	
116.6620	  55.7516	   0.0000	
 -0.0000	   0.0000	   0.0000	
 -0.0000	  -0.0000	   0.0000	
 50.8381	  50.0000	   0.0000	
 91.1478	 162.0742	   0.0000	
 45.9549	  49.9510	   0.0000	
 53.9033	 143.5787	   0.0000	
 44.5771	  49.6873	   0.0000	
 34.7424	 127.2154	   0.0000	
 43.2934	  48.6111	   0.0000	
 21.8794	 113.1973	   0.0000	
 43.1425	  47.7215	   0.0000	
 22.4062	 107.4340	   0.0000	
 44.9693	  46.2373	   0.0000	
 20.8415	 102.4261	   0.0000	
 43.2277	  46.4612	   0.0000	
 23.8454	  99.6290	   0.0000	
 44.3552	  45.6500	   0.0000	
 22.5691	  95.1473	   0.0000	
 43.2222	  45.1985	   0.0000	
 24.6301	  91.4750	   0.0000	
 40.7653	  45.3067	   0.0000	
 27.2645	  87.8883	   0.0000	
 40.1314	  44.3165	   0.0000	
 34.1050	  85.8939	   0.0000	
 45.3970	  41.3149	   0.0000	
 25.4577	  78.1513	   0.0000	
 40.5341	  41.6525	   0.0000	
 32.9544	  76.4019	   0.0000	
 41.0541	  38.8677	   0.0000	
 34.9853	  71.5836	   0.0000	
 39.5179	  34.8486	   0.0000	
 36.3870	  65.4535	   0.0000	
 41.2729	  29.6185	   0.0000	
 40.6918	  57.1656	   0.0000	
 29.0233	  27.6259	   0.0000	
 54.9468	  51.1332	   0.0000	
 18.9591	  21.6930	   0.0000	
 69.2435	  41.8595	   0.0000	
 39.8228	   2.9082	   0.0000	
 62.1844	  22.9479	   0.0000	
 28.0456	   0.4095	   0.0000	
 -4.3700	  -1.3842	   0.0000	
 -0.0000	   0.0000	   0.0000	
 -0.0000	  -0.0000	   0.0000	
 51.7097	  50.0000	   0.0000	
-46.2303	  65.2616	   0.0000	
 50.3974	  50.5247	   0.0000	
-13.7004	  67.1234	   0.0000	
 47.4539	  50.8898	   0.0000	
  1.5881	  67.1465	   0.0000	
 45.0029	  52.1782	   0.0000	
  8.9336	  66.9760	   0.0000	
 46.0858	  52.3570	   0.0000	
 10.9217	  65.7046	   0.0000	
 45.4041	  53.0630	   0.0000	
 10.3718	  64.4960	   0.0000	
 45.9923	  53.8765	   0.0000	
 11.9789	  63.3957	   0.0000	
 46.2395	  53.7978	   0.0000	
 13.6701	  61.8191	   0.0000	
 45.3410	  54.7375	   0.0000	
 16.1348	  60.5910	   0.0000	
 44.3833	  55.5192	   0.0000	
 19.0862	  59.6236	   0.0000	
 48.1496	  55.4822	   0.0000	
 15.2632	  58.0916	   0.0000	
 48.8497	  56.2287	   0.0000	
 17.1401	  56.0815	   0.0000	
 54.0532	  56.5413	   0.0000	
 16.8627	  53.8162	   0.0000	
 56.0216	  57.6140	   0.0000	
  7.8567	  50.8815	   0.0000	
 58.7147	  58.4681	   0.0000	
 10.8009	  48.8322	   0.0000	
 63.2769	  56.8213	   0.0000	
 11.2401	  43.5194	   0.0000	
 62.7650	  56.3005	   0.0000	
 18.2161	  39.2274	   0.0000	
 71.0753	  57.4644	   0.0000	
 23.2391	  35.2131	   0.0000	
 68.9881	  56.7382	   0.0000	
 -2.1938	  35.9312	   0.0000	
 42.2612	  56.9408	   0.0000	
  0.9683	  41.7945	   0.0000	
 29.7457	  54.9565	   0.0000	
  1.0291	  44.4358	   0.0000	
 45.3944	  50.0000	   0.0000	
 10.8811	  53.5376	   0.0000	
 43.1199	  50.3229	   0.0000	
 -2.3762	  58.7031	   0.0000	
 41.4168	  50.5098	   0.0000	
  2.2045	  59.2589	   0.0000	
 39.0703	  50.2354	   0.0000	
  5.1855	  58.8638	   0.0000	
 39.9415	  50.7764	   0.0000	
  6.4623	  58.8242	   0.0000	
 40.9223	  51.2539	   0.0000	
  6.4610	  59.1315	   0.0000	
 39.4910	  51.2416	   0.0000	
 10.4488	  58.2682	   0.0000	
 40.0231	  52.0117	   0.0000	
  9.0631	  59.3483	   0.0000	
 41.2291	  52.6443	   0.0000	
 11.1203	  58.6956	   0.0000	
 39.6220	  53.0044	   0.0000	
 12.8223	  58.4176	   0.0000	
 43.0708	  54.1605	   0.0000	
 13.8188	  58.6678	   0.0000	
 40.3831	  54.3852	   0.0000	
 14.5091	  58.2093	   0.0000	
 40.6700	  56.1007	   0.0000	
 11.2171	  59.7905	   0.0000	
 44.1215	  58.7229	   0.0000	
 13.0387	  60.8736	   0.0000	
 42.2197	  60.0140	   0.0000	
 12.6226	  61.2391	   0.0000	
 47.6829	  64.8329	   0.0000	
  7.5186	  64.2854	   0.0000	
 45.9077	  68.2847	   0.0000	
  8.9015	  64.8441	   0.0000	
 45.4419	  73.2887	   0.0000	
 13.3749	  64.9672	   0.0000	
 49.0116	  79.1730	   0.0000	
 20.7832	  62.4096	   0.0000	
 39.8102	  86.9213	   0.0000	
 18.8484	  70.1881	   0.0000	
 18.3819	  89.2911	   0.0000	
 23.2821	  74.2755	   0.0000	
 42.8477	  50.0000	   0.0000	
 -1.6014	  45.6261	   0.0000	
 43.1648	  49.9978	   0.0000	
  2.2123	  44.8184	   0.0000	
 42.7268	  50.4370	   0.0000	
  4.7402	  44.0716	   0.0000	
 41.4128	  50.0392	   0.0000	
  7.7861	  43.2512	   0.0000	
 42.2898	  50.5231	   0.0000	
  7.1580	  44.4107	   0.0000	
 42.0685	  50.1454	   0.0000	
  5.5902	  46.5351	   0.0000	
 41.4149	  49.7790	   0.0000	
  6.9914	  46.7601	   0.0000	
 41.1395	  49.6417	   0.0000	
  7.4040	  48.0150	   0.0000	
 40.6407	  49.6165	   0.0000	
  9.7732	  48.0211	   0.0000	
 39.1966	  48.9536	   0.0000	
 11.3871	  48.1776	   0.0000	
 40.4926	  49.8636	   0.0000	
  9.3954	  50.2157	   0.0000	
 38.3181	  49.1868	   0.0000	
 14.1873	  48.9041	   0.0000	
 39.5626	  50.5935	   0.0000	
 14.4006	  49.8556	   0.0000	
 37.6224	  50.0544	   0.0000	
 14.1117	  50.7409	   0.0000	
 38.5641	  51.5736	   0.0000	
 15.0169	  52.0285	   0.0000	
 37.3534	  51.9400	   0.0000	
 15.7991	  52.6255	   0.0000	
 35.8718	  53.1901	   0.0000	
 16.2672	  54.5582	   0.0000	
 38.0308	  57.2254	   0.0000	
 14.5883	  58.6456	   0.0000	
 32.7017	  57.7160	   0.0000	
 22.2401	  58.8326	   0.0000	
 37.4955	  63.4797	   0.0000	
 17.1433	  62.9335	   0.0000	
 12.2986	  60.9617	   0.0000	
 38.9440	  56.7685	   0.0000	
 49.8974	  50.0000	   0.0000	
  0.4609	  29.7122	   0.0000	
 47.3857	  49.3402	   0.0000	
  1.8436	  31.1795	   0.0000	
 44.6737	  48.6328	   0.0000	
  3.1719	  32.6447	   0.0000	
 44.0478	  48.4677	   0.0000	
  4.1597	  34.2021	   0.0000	
 45.6363	  49.0649	   0.0000	
  6.6981	  35.1632	   0.0000	
 45.3061	  48.7907	   0.0000	
  7.6152	  37.0075	   0.0000	
 41.8338	  46.2458	   0.0000	
  8.1895	  38.4443	   0.0000	
 41.4357	  46.4052	   0.0000	
  9.4369	  38.6957	   0.0000	
 41.1895	  47.1502	   0.0000	
 10.3530	  39.1785	   0.0000	
 39.7424	  47.4256	   0.0000	
 11.8732	  40.3909	   0.0000	
 39.2360	  47.7787	   0.0000	
 13.3214	  41.7065	   0.0000	
 37.9476	  48.1476	   0.0000	
 14.8505	  42.6645	   0.0000	
 37.2368	  48.6215	   0.0000	
 15.7318	  44.4623	   0.0000	
 36.8016	  49.7118	   0.0000	
 15.4799	  46.8043	   0.0000	
 36.3813	  49.5968	   0.0000	
 16.7208	  46.7343	   0.0000	
 34.3092	  50.0871	   0.0000	
 17.6911	  47.7851	   0.0000	
 33.7776	  50.4894	   0.0000	
 21.3617	  47.4658	   0.0000	
 34.5466	  52.3659	   0.0000	
 18.9380	  50.9654	   0.0000	
 31.4285	  51.6404	   0.0000	
 21.8843	  51.2646	   0.0000	
 30.0274	  52.0815	   0.0000	
 24.3412	  51.7274	   0.0000	
 27.0324	  53.7292	   0.0000	
 22.1596	  55.6214	   0.0000	
  0.0000	   0.0000	   0.0000	
  0.0000	   0.0000	   0.0000	
 -0.0000	   0.0000	   0.0000	
  0.0000	  -0.0000	   0.0000	
 -0.0000	   0.0000	   0.0000	
  0.0000	   0.0000	   0.0000	
 -0.0000	   0.0000	   0.0000	
 -0.0000	  -0.0000	   0.0000	
 -0.0000	  -0.0000	   0.0000	
 -0.0000	   0.0000	   0.0000	
 -0.0000	  -0.0000	   0.0000	
 -0.0000	  -0.0000	   0.0000	
 -0.0000	   0.0000	   0.0000	
 -0.0000	  -0.0000	   0.0000	