# vtk DataFile Version 3.0 
Results 
ASCII 
DATASET UNSTRUCTURED_GRID 
POINTS 	    1451 float 
  0.0000	   0.6000	  0.0000	 
  0.0000	   1.2000	  0.0000	 
  0.0000	   1.8000	  0.0000	 
  0.0000	   2.4000	  0.0000	 
  0.0000	   3.0000	  0.0000	 
  0.0000	   3.6000	  0.0000	 
  0.0000	   4.2000	  0.0000	 
  0.0000	   4.8000	  0.0000	 
  0.0000	   5.4000	  0.0000	 
  0.0000	   6.0000	  0.0000	 
  0.0000	   6.6000	  0.0000	 
  0.0000	   7.2000	  0.0000	 
  0.0000	   7.8000	  0.0000	 
  0.0000	   8.4000	  0.0000	 
  0.0000	   9.0000	  0.0000	 
  0.0000	   9.6000	  0.0000	 
  0.0000	  10.2000	  0.0000	 
  0.0000	  10.8000	  0.0000	 
  0.0000	  11.4000	  0.0000	 
  0.2250	   0.8475	  0.0000	 
  0.2250	   1.4200	  0.0000	 
  0.2250	   1.9925	  0.0000	 
  0.2250	   2.5650	  0.0000	 
  0.2250	   3.1375	  0.0000	 
  0.2250	   3.7100	  0.0000	 
  0.2250	   4.2825	  0.0000	 
  0.2250	   4.8550	  0.0000	 
  0.2250	   5.4275	  0.0000	 
  0.2250	   6.0000	  0.0000	 
  0.2250	   6.5725	  0.0000	 
  0.2250	   7.1450	  0.0000	 
  0.2250	   7.7175	  0.0000	 
  0.2250	   8.2900	  0.0000	 
  0.2250	   8.8625	  0.0000	 
  0.2250	   9.4350	  0.0000	 
  0.2250	  10.0075	  0.0000	 
  0.2250	  10.5800	  0.0000	 
  0.2250	  11.1525	  0.0000	 
  0.4500	   1.0950	  0.0000	 
  0.4500	   1.6400	  0.0000	 
  0.4500	   2.1850	  0.0000	 
  0.4500	   2.7300	  0.0000	 
  0.4500	   3.2750	  0.0000	 
  0.4500	   3.8200	  0.0000	 
  0.4500	   4.3650	  0.0000	 
  0.4500	   4.9100	  0.0000	 
  0.4500	   5.4550	  0.0000	 
  0.4500	   6.0000	  0.0000	 
  0.4500	   6.5450	  0.0000	 
  0.4500	   7.0900	  0.0000	 
  0.4500	   7.6350	  0.0000	 
  0.4500	   8.1800	  0.0000	 
  0.4500	   8.7250	  0.0000	 
  0.4500	   9.2700	  0.0000	 
  0.4500	   9.8150	  0.0000	 
  0.4500	  10.3600	  0.0000	 
  0.4500	  10.9050	  0.0000	 
  0.6750	   1.3425	  0.0000	 
  0.6750	   1.8600	  0.0000	 
  0.6750	   2.3775	  0.0000	 
  0.6750	   2.8950	  0.0000	 
  0.6750	   3.4125	  0.0000	 
  0.6750	   3.9300	  0.0000	 
  0.6750	   4.4475	  0.0000	 
  0.6750	   4.9650	  0.0000	 
  0.6750	   5.4825	  0.0000	 
  0.6750	   6.0000	  0.0000	 
  0.6750	   6.5175	  0.0000	 
  0.6750	   7.0350	  0.0000	 
  0.6750	   7.5525	  0.0000	 
  0.6750	   8.0700	  0.0000	 
  0.6750	   8.5875	  0.0000	 
  0.6750	   9.1050	  0.0000	 
  0.6750	   9.6225	  0.0000	 
  0.6750	  10.1400	  0.0000	 
  0.6750	  10.6575	  0.0000	 
  0.9000	   1.5900	  0.0000	 
  0.9000	   2.0800	  0.0000	 
  0.9000	   2.5700	  0.0000	 
  0.9000	   3.0600	  0.0000	 
  0.9000	   3.5500	  0.0000	 
  0.9000	   4.0400	  0.0000	 
  0.9000	   4.5300	  0.0000	 
  0.9000	   5.0200	  0.0000	 
  0.9000	   5.5100	  0.0000	 
  0.9000	   6.0000	  0.0000	 
  0.9000	   6.4900	  0.0000	 
  0.9000	   6.9800	  0.0000	 
  0.9000	   7.4700	  0.0000	 
  0.9000	   7.9600	  0.0000	 
  0.9000	   8.4500	  0.0000	 
  0.9000	   8.9400	  0.0000	 
  0.9000	   9.4300	  0.0000	 
  0.9000	   9.9200	  0.0000	 
  0.9000	  10.4100	  0.0000	 
  1.1250	   1.8375	  0.0000	 
  1.1250	   2.3000	  0.0000	 
  1.1250	   2.7625	  0.0000	 
  1.1250	   3.2250	  0.0000	 
  1.1250	   3.6875	  0.0000	 
  1.1250	   4.1500	  0.0000	 
  1.1250	   4.6125	  0.0000	 
  1.1250	   5.0750	  0.0000	 
  1.1250	   5.5375	  0.0000	 
  1.1250	   6.0000	  0.0000	 
  1.1250	   6.4625	  0.0000	 
  1.1250	   6.9250	  0.0000	 
  1.1250	   7.3875	  0.0000	 
  1.1250	   7.8500	  0.0000	 
  1.1250	   8.3125	  0.0000	 
  1.1250	   8.7750	  0.0000	 
  1.1250	   9.2375	  0.0000	 
  1.1250	   9.7000	  0.0000	 
  1.1250	  10.1625	  0.0000	 
  1.3500	   2.0850	  0.0000	 
  1.3500	   2.5200	  0.0000	 
  1.3500	   2.9550	  0.0000	 
  1.3500	   3.3900	  0.0000	 
  1.3500	   3.8250	  0.0000	 
  1.3500	   4.2600	  0.0000	 
  1.3500	   4.6950	  0.0000	 
  1.3500	   5.1300	  0.0000	 
  1.3500	   5.5650	  0.0000	 
  1.3500	   6.0000	  0.0000	 
  1.3500	   6.4350	  0.0000	 
  1.3500	   6.8700	  0.0000	 
  1.3500	   7.3050	  0.0000	 
  1.3500	   7.7400	  0.0000	 
  1.3500	   8.1750	  0.0000	 
  1.3500	   8.6100	  0.0000	 
  1.3500	   9.0450	  0.0000	 
  1.3500	   9.4800	  0.0000	 
  1.3500	   9.9150	  0.0000	 
  1.5750	   2.3325	  0.0000	 
  1.5750	   2.7400	  0.0000	 
  1.5750	   3.1475	  0.0000	 
  1.5750	   3.5550	  0.0000	 
  1.5750	   3.9625	  0.0000	 
  1.5750	   4.3700	  0.0000	 
  1.5750	   4.7775	  0.0000	 
  1.5750	   5.1850	  0.0000	 
  1.5750	   5.5925	  0.0000	 
  1.5750	   6.0000	  0.0000	 
  1.5750	   6.4075	  0.0000	 
  1.5750	   6.8150	  0.0000	 
  1.5750	   7.2225	  0.0000	 
  1.5750	   7.6300	  0.0000	 
  1.5750	   8.0375	  0.0000	 
  1.5750	   8.4450	  0.0000	 
  1.5750	   8.8525	  0.0000	 
  1.5750	   9.2600	  0.0000	 
  1.5750	   9.6675	  0.0000	 
  1.8000	   2.5800	  0.0000	 
  1.8000	   2.9600	  0.0000	 
  1.8000	   3.3400	  0.0000	 
  1.8000	   3.7200	  0.0000	 
  1.8000	   4.1000	  0.0000	 
  1.8000	   4.4800	  0.0000	 
  1.8000	   4.8600	  0.0000	 
  1.8000	   5.2400	  0.0000	 
  1.8000	   5.6200	  0.0000	 
  1.8000	   6.0000	  0.0000	 
  1.8000	   6.3800	  0.0000	 
  1.8000	   6.7600	  0.0000	 
  1.8000	   7.1400	  0.0000	 
  1.8000	   7.5200	  0.0000	 
  1.8000	   7.9000	  0.0000	 
  1.8000	   8.2800	  0.0000	 
  1.8000	   8.6600	  0.0000	 
  1.8000	   9.0400	  0.0000	 
  1.8000	   9.4200	  0.0000	 
  2.0250	   2.8275	  0.0000	 
  2.0250	   3.1800	  0.0000	 
  2.0250	   3.5325	  0.0000	 
  2.0250	   3.8850	  0.0000	 
  2.0250	   4.2375	  0.0000	 
  2.0250	   4.5900	  0.0000	 
  2.0250	   4.9425	  0.0000	 
  2.0250	   5.2950	  0.0000	 
  2.0250	   5.6475	  0.0000	 
  2.0250	   6.0000	  0.0000	 
  2.0250	   6.3525	  0.0000	 
  2.0250	   6.7050	  0.0000	 
  2.0250	   7.0575	  0.0000	 
  2.0250	   7.4100	  0.0000	 
  2.0250	   7.7625	  0.0000	 
  2.0250	   8.1150	  0.0000	 
  2.0250	   8.4675	  0.0000	 
  2.0250	   8.8200	  0.0000	 
  2.0250	   9.1725	  0.0000	 
  2.2500	   3.0750	  0.0000	 
  2.2500	   3.4000	  0.0000	 
  2.2500	   3.7250	  0.0000	 
  2.2500	   4.0500	  0.0000	 
  2.2500	   4.3750	  0.0000	 
  2.2500	   4.7000	  0.0000	 
  2.2500	   5.0250	  0.0000	 
  2.2500	   5.3500	  0.0000	 
  2.2500	   5.6750	  0.0000	 
  2.2500	   6.0000	  0.0000	 
  2.2500	   6.3250	  0.0000	 
  2.2500	   6.6500	  0.0000	 
  2.2500	   6.9750	  0.0000	 
  2.2500	   7.3000	  0.0000	 
  2.2500	   7.6250	  0.0000	 
  2.2500	   7.9500	  0.0000	 
  2.2500	   8.2750	  0.0000	 
  2.2500	   8.6000	  0.0000	 
  2.2500	   8.9250	  0.0000	 
  2.4750	   3.3225	  0.0000	 
  2.4750	   3.6200	  0.0000	 
  2.4750	   3.9175	  0.0000	 
  2.4750	   4.2150	  0.0000	 
  2.4750	   4.5125	  0.0000	 
  2.4750	   4.8100	  0.0000	 
  2.4750	   5.1075	  0.0000	 
  2.4750	   5.4050	  0.0000	 
  2.4750	   5.7025	  0.0000	 
  2.4750	   6.0000	  0.0000	 
  2.4750	   6.2975	  0.0000	 
  2.4750	   6.5950	  0.0000	 
  2.4750	   6.8925	  0.0000	 
  2.4750	   7.1900	  0.0000	 
  2.4750	   7.4875	  0.0000	 
  2.4750	   7.7850	  0.0000	 
  2.4750	   8.0825	  0.0000	 
  2.4750	   8.3800	  0.0000	 
  2.4750	   8.6775	  0.0000	 
  2.7000	   3.5700	  0.0000	 
  2.7000	   3.8400	  0.0000	 
  2.7000	   4.1100	  0.0000	 
  2.7000	   4.3800	  0.0000	 
  2.7000	   4.6500	  0.0000	 
  2.7000	   4.9200	  0.0000	 
  2.7000	   5.1900	  0.0000	 
  2.7000	   5.4600	  0.0000	 
  2.7000	   5.7300	  0.0000	 
  2.7000	   6.0000	  0.0000	 
  2.7000	   6.2700	  0.0000	 
  2.7000	   6.5400	  0.0000	 
  2.7000	   6.8100	  0.0000	 
  2.7000	   7.0800	  0.0000	 
  2.7000	   7.3500	  0.0000	 
  2.7000	   7.6200	  0.0000	 
  2.7000	   7.8900	  0.0000	 
  2.7000	   8.1600	  0.0000	 
  2.7000	   8.4300	  0.0000	 
  2.9250	   3.8175	  0.0000	 
  2.9250	   4.0600	  0.0000	 
  2.9250	   4.3025	  0.0000	 
  2.9250	   4.5450	  0.0000	 
  2.9250	   4.7875	  0.0000	 
  2.9250	   5.0300	  0.0000	 
  2.9250	   5.2725	  0.0000	 
  2.9250	   5.5150	  0.0000	 
  2.9250	   5.7575	  0.0000	 
  2.9250	   6.0000	  0.0000	 
  2.9250	   6.2425	  0.0000	 
  2.9250	   6.4850	  0.0000	 
  2.9250	   6.7275	  0.0000	 
  2.9250	   6.9700	  0.0000	 
  2.9250	   7.2125	  0.0000	 
  2.9250	   7.4550	  0.0000	 
  2.9250	   7.6975	  0.0000	 
  2.9250	   7.9400	  0.0000	 
  2.9250	   8.1825	  0.0000	 
  3.1500	   4.0650	  0.0000	 
  3.1500	   4.2800	  0.0000	 
  3.1500	   4.4950	  0.0000	 
  3.1500	   4.7100	  0.0000	 
  3.1500	   4.9250	  0.0000	 
  3.1500	   5.1400	  0.0000	 
  3.1500	   5.3550	  0.0000	 
  3.1500	   5.5700	  0.0000	 
  3.1500	   5.7850	  0.0000	 
  3.1500	   6.0000	  0.0000	 
  3.1500	   6.2150	  0.0000	 
  3.1500	   6.4300	  0.0000	 
  3.1500	   6.6450	  0.0000	 
  3.1500	   6.8600	  0.0000	 
  3.1500	   7.0750	  0.0000	 
  3.1500	   7.2900	  0.0000	 
  3.1500	   7.5050	  0.0000	 
  3.1500	   7.7200	  0.0000	 
  3.1500	   7.9350	  0.0000	 
  3.3750	   4.3125	  0.0000	 
  3.3750	   4.5000	  0.0000	 
  3.3750	   4.6875	  0.0000	 
  3.3750	   4.8750	  0.0000	 
  3.3750	   5.0625	  0.0000	 
  3.3750	   5.2500	  0.0000	 
  3.3750	   5.4375	  0.0000	 
  3.3750	   5.6250	  0.0000	 
  3.3750	   5.8125	  0.0000	 
  3.3750	   6.0000	  0.0000	 
  3.3750	   6.1875	  0.0000	 
  3.3750	   6.3750	  0.0000	 
  3.3750	   6.5625	  0.0000	 
  3.3750	   6.7500	  0.0000	 
  3.3750	   6.9375	  0.0000	 
  3.3750	   7.1250	  0.0000	 
  3.3750	   7.3125	  0.0000	 
  3.3750	   7.5000	  0.0000	 
  3.3750	   7.6875	  0.0000	 
  3.6000	   4.5600	  0.0000	 
  3.6000	   4.7200	  0.0000	 
  3.6000	   4.8800	  0.0000	 
  3.6000	   5.0400	  0.0000	 
  3.6000	   5.2000	  0.0000	 
  3.6000	   5.3600	  0.0000	 
  3.6000	   5.5200	  0.0000	 
  3.6000	   5.6800	  0.0000	 
  3.6000	   5.8400	  0.0000	 
  3.6000	   6.0000	  0.0000	 
  3.6000	   6.1600	  0.0000	 
  3.6000	   6.3200	  0.0000	 
  3.6000	   6.4800	  0.0000	 
  3.6000	   6.6400	  0.0000	 
  3.6000	   6.8000	  0.0000	 
  3.6000	   6.9600	  0.0000	 
  3.6000	   7.1200	  0.0000	 
  3.6000	   7.2800	  0.0000	 
  3.6000	   7.4400	  0.0000	 
  3.8250	   4.8075	  0.0000	 
  3.8250	   4.9400	  0.0000	 
  3.8250	   5.0725	  0.0000	 
  3.8250	   5.2050	  0.0000	 
  3.8250	   5.3375	  0.0000	 
  3.8250	   5.4700	  0.0000	 
  3.8250	   5.6025	  0.0000	 
[...]
POINT_DATA 	    1451 
VECTORS U float 
 50.0000	   0.0000	   0.0000	
 50.0000	   0.0000	   0.0000	
 50.0000	   0.0000	   0.0000	
 50.0000	   0.0000	   0.0000	
 50.0000	  -0.0000	   0.0000	
 50.0000	  -0.0000	   0.0000	
 50.0000	   0.0000	   0.0000	
 50.0000	  -0.0000	   0.0000	
 50.0000	  -0.0000	   0.0000	
 50.0000	   0.0000	   0.0000	
 50.0000	  -0.0000	   0.0000	
 50.0000	  -0.0000	   0.0000	
 50.0000	   0.0000	   0.0000	
 50.0000	   0.0000	   0.0000	
 50.0000	  -0.0000	   0.0000	
 50.0000	  -0.0000	   0.0000	
 50.0000	   0.0000	   0.0000	
 50.0000	   0.0000	   0.0000	
 50.0000	  -0.0000	   0.0000	
 49.1717	   5.9297	   0.0000	
 50.2626	   6.3301	   0.0000	
 50.2049	  10.1333	   0.0000	
 49.8556	  17.9125	   0.0000	
 49.9813	  10.1332	   0.0000	
 49.7705	  18.3602	   0.0000	
 49.3800	  22.0075	   0.0000	
 49.2405	  27.4586	   0.0000	
 49.7441	  30.8428	   0.0000	
 49.9758	  32.3612	   0.0000	
 49.7894	  32.2418	   0.0000	
 50.7116	  31.2980	   0.0000	
 50.3619	  26.8983	   0.0000	
 50.2566	  24.4010	   0.0000	
 50.2923	  23.0698	   0.0000	
 49.9732	  15.3155	   0.0000	
 50.0328	  18.0874	   0.0000	
 49.2735	  15.4595	   0.0000	
 50.4542	  15.3471	   0.0000	
 50.0764	  11.3451	   0.0000	
 46.5255	  17.5082	   0.0000	
 43.9313	  31.3211	   0.0000	
 56.2226	  23.1577	   0.0000	
 43.8971	  32.2103	   0.0000	
 47.3676	  37.1040	   0.0000	
 45.6958	  47.5536	   0.0000	
 46.9079	  56.0782	   0.0000	
 48.4858	  60.2736	   0.0000	
 49.3308	  62.3164	   0.0000	
 50.2160	  62.8256	   0.0000	
 51.1776	  62.4479	   0.0000	
 54.0269	  57.2177	   0.0000	
 51.8026	  46.1449	   0.0000	
 50.4719	  44.8025	   0.0000	
 55.6406	  42.1083	   0.0000	
 47.8226	  31.7824	   0.0000	
 52.6209	  33.1038	   0.0000	
 50.5592	  32.4525	   0.0000	
 45.2904	  19.0904	   0.0000	
 39.3188	  41.3334	   0.0000	
 52.7958	  35.3217	   0.0000	
 47.9063	  45.4679	   0.0000	
 43.6860	  47.8234	   0.0000	
 42.0561	  58.8802	   0.0000	
 42.3356	  67.4531	   0.0000	
 45.3251	  70.8669	   0.0000	
 47.6035	  73.7406	   0.0000	
 47.6585	  76.8030	   0.0000	
 50.1116	  81.8598	   0.0000	
 51.1333	  81.1548	   0.0000	
 55.5038	  83.3739	   0.0000	
 58.4475	  77.3231	   0.0000	
 51.8498	  64.1100	   0.0000	
 53.8440	  61.6219	   0.0000	
 56.2668	  60.5600	   0.0000	
 50.1623	  49.8299	   0.0000	
 48.4160	  48.5179	   0.0000	
 26.1164	  44.3227	   0.0000	
 47.0722	  44.7275	   0.0000	
 48.9524	  53.7067	   0.0000	
 43.8153	  61.8271	   0.0000	
 38.9093	  60.5301	   0.0000	
 39.2184	  65.2880	   0.0000	
 41.2482	  66.9946	   0.0000	
 44.4681	  69.9972	   0.0000	
 46.5836	  71.7587	   0.0000	
 47.3571	  72.6972	   0.0000	
 47.4496	  72.7098	   0.0000	
 50.8114	  79.3467	   0.0000	
 53.5766	  78.9337	   0.0000	
 59.6046	  82.4494	   0.0000	
 59.4871	  80.2033	   0.0000	
 53.5712	  77.3780	   0.0000	
 57.2059	  78.9395	   0.0000	
 54.6179	  77.1108	   0.0000	
 54.9746	  64.6723	   0.0000	
 38.4035	  50.2448	   0.0000	
 44.4179	  62.7510	   0.0000	
 41.0991	  70.7249	   0.0000	
 46.0332	  70.7018	   0.0000	
 37.5257	  67.1963	   0.0000	
 39.3273	  66.3063	   0.0000	
 40.5745	  68.0669	   0.0000	
 44.0785	  68.9610	   0.0000	
 45.8948	  70.6421	   0.0000	
 46.5081	  72.2918	   0.0000	
 47.9698	  73.9839	   0.0000	
 47.1677	  72.4333	   0.0000	
 53.0894	  79.8814	   0.0000	
 56.9449	  78.7858	   0.0000	
 59.9624	  83.6775	   0.0000	
 52.4287	  88.8990	   0.0000	
 53.9798	  91.0658	   0.0000	
 57.0494	  94.8461	   0.0000	
 61.6964	  97.1465	   0.0000	
 35.5582	  68.4130	   0.0000	
 41.8801	  78.6252	   0.0000	
 43.5069	  74.0386	   0.0000	
 45.3529	  76.5284	   0.0000	
 38.6120	  69.9433	   0.0000	
 38.9807	  70.8494	   0.0000	
 41.0148	  70.2649	   0.0000	
 43.3897	  72.1798	   0.0000	
 45.3413	  73.9088	   0.0000	
 45.0929	  76.4726	   0.0000	
 46.8438	  79.5213	   0.0000	
 48.0991	  81.3561	   0.0000	
 48.0581	  79.7302	   0.0000	
 56.4612	  87.0345	   0.0000	
 56.8730	  86.6757	   0.0000	
 51.6062	  96.2022	   0.0000	
 51.2923	  98.8002	   0.0000	
 53.1835	 104.7013	   0.0000	
 51.5582	 114.5119	   0.0000	
 34.8173	  65.4018	   0.0000	
 45.4725	  68.2357	   0.0000	
 42.9843	  67.1755	   0.0000	
 45.6585	  68.9069	   0.0000	
 38.1061	  66.5933	   0.0000	
 39.9955	  65.5506	   0.0000	
 40.1409	  67.4460	   0.0000	
 42.6417	  69.9831	   0.0000	
 43.7515	  73.0210	   0.0000	
 44.4734	  74.4052	   0.0000	
 45.3843	  75.1736	   0.0000	
 46.7012	  78.0731	   0.0000	
 49.1707	  79.9082	   0.0000	
 50.5964	  76.6947	   0.0000	
 57.1571	  84.2562	   0.0000	
 49.6742	  86.3005	   0.0000	
 49.7873	  89.3371	   0.0000	
 49.1413	  92.2231	   0.0000	
 46.3536	 102.7352	   0.0000	
 39.8823	  59.9171	   0.0000	
 44.9472	  65.2921	   0.0000	
 42.6669	  64.2175	   0.0000	
 43.3790	  70.0052	   0.0000	
 39.2495	  65.6342	   0.0000	
 38.7462	  67.5488	   0.0000	
 39.2011	  69.6177	   0.0000	
 41.0639	  72.5258	   0.0000	
 42.9771	  74.4281	   0.0000	
 43.2690	  76.4361	   0.0000	
 45.0439	  78.4313	   0.0000	
 44.7827	  78.5219	   0.0000	
 47.5536	  81.7587	   0.0000	
 52.5662	  82.0583	   0.0000	
 50.9432	  78.5675	   0.0000	
 51.8901	  89.0542	   0.0000	
 48.8362	  85.9816	   0.0000	
 48.3038	  87.2292	   0.0000	
 41.7725	  95.1048	   0.0000	
 40.2123	  58.6508	   0.0000	
 43.8850	  63.8580	   0.0000	
 39.3195	  65.7254	   0.0000	
 44.1619	  67.8950	   0.0000	
 37.7371	  66.6938	   0.0000	
 37.7836	  68.4142	   0.0000	
 37.7604	  70.6340	   0.0000	
 40.1998	  72.7601	   0.0000	
 41.6085	  75.2336	   0.0000	
 41.7354	  77.7443	   0.0000	
 43.9197	  80.1186	   0.0000	
 44.8499	  81.6113	   0.0000	
 45.0072	  81.4880	   0.0000	
 51.0241	  83.2661	   0.0000	
 54.1853	  83.5397	   0.0000	
 45.0663	  83.4413	   0.0000	
 51.9897	  90.2148	   0.0000	
 49.0734	  87.0894	   0.0000	
 41.0286	  92.3128	   0.0000	
 39.2718	  59.1393	   0.0000	
 39.9790	  65.6928	   0.0000	
 40.6494	  64.1145	   0.0000	
 41.6520	  68.6551	   0.0000	
 36.4532	  67.8263	   0.0000	
 36.4093	  69.6547	   0.0000	
 36.8053	  71.4286	   0.0000	
 38.7303	  74.1292	   0.0000	
 40.0370	  76.7814	   0.0000	
 40.5834	  78.3773	   0.0000	
 42.5455	  79.4878	   0.0000	
 43.5613	  81.0575	   0.0000	
 45.2335	  82.4687	   0.0000	
 48.3536	  80.2259	   0.0000	
 52.5956	  82.1844	   0.0000	
 50.0306	  85.5244	   0.0000	
 42.9220	  83.8507	   0.0000	
 52.9978	  89.5271	   0.0000	
 44.2732	  90.8344	   0.0000	
 35.6116	  61.5622	   0.0000	
 42.0553	  63.6889	   0.0000	
 37.6328	  63.7307	   0.0000	
 39.5998	  68.2643	   0.0000	
 34.9114	  67.7993	   0.0000	
 35.2240	  69.8007	   0.0000	
 35.5354	  71.5012	   0.0000	
 37.0820	  73.7919	   0.0000	
 38.7351	  75.9225	   0.0000	
 38.8197	  78.3977	   0.0000	
 42.1858	  80.7669	   0.0000	
 42.2423	  80.8161	   0.0000	
 44.1479	  82.3830	   0.0000	
 49.2028	  81.5324	   0.0000	
 49.2350	  80.2438	   0.0000	
 49.0880	  85.6502	   0.0000	
 47.6784	  87.9739	   0.0000	
 42.4822	  86.7023	   0.0000	
 49.8631	  93.4804	   0.0000	
 39.8600	  60.8357	   0.0000	
 38.4424	  64.3395	   0.0000	
 35.3456	  65.5243	   0.0000	
 36.8132	  70.0422	   0.0000	
 33.4612	  70.2678	   0.0000	
 34.0876	  71.9579	   0.0000	
 34.2047	  73.7503	   0.0000	
 35.7593	  75.8957	   0.0000	
 36.6901	  78.7174	   0.0000	
 35.9844	  82.2905	   0.0000	
 40.0784	  85.5439	   0.0000	
 42.3247	  87.2042	   0.0000	
 42.7088	  86.6841	   0.0000	
 47.9505	  85.8409	   0.0000	
 50.1415	  86.4486	   0.0000	
 44.6258	  88.9777	   0.0000	
 45.7716	  94.4451	   0.0000	
 49.4157	  92.4976	   0.0000	
 38.1420	  91.9564	   0.0000	
 35.9755	  57.5649	   0.0000	
 33.9074	  59.9663	   0.0000	
 32.2594	  62.5489	   0.0000	
 33.9449	  68.1803	   0.0000	
 31.7658	  69.7107	   0.0000	
 32.7670	  71.9870	   0.0000	
 32.1842	  74.3882	   0.0000	
 33.3882	  77.9035	   0.0000	
 33.2309	  82.2145	   0.0000	
 36.7874	  81.3580	   0.0000	
 37.7729	  79.9584	   0.0000	
 40.3067	  82.1360	   0.0000	
 43.4687	  83.9510	   0.0000	
 46.8804	  81.5377	   0.0000	
 47.6366	  83.4571	   0.0000	
 45.8623	  87.9724	   0.0000	
 40.1314	  90.6354	   0.0000	
 50.3414	  87.1443	   0.0000	
 51.7421	  80.1993	   0.0000	
 31.2707	  60.4946	   0.0000	
 28.9715	  62.8943	   0.0000	
 27.7719	  66.3801	   0.0000	
 31.1928	  70.4080	   0.0000	
 29.3958	  71.6475	   0.0000	
 29.7483	  75.1680	   0.0000	
 29.4383	  77.8898	   0.0000	
 28.9617	  81.2732	   0.0000	
 34.6620	  80.6351	   0.0000	
 34.1649	  81.8551	   0.0000	
 39.7562	  85.0752	   0.0000	
 37.0917	  82.8495	   0.0000	
 41.1427	  84.8970	   0.0000	
 47.3620	  84.0398	   0.0000	
 43.2582	  86.8731	   0.0000	
 42.6356	  93.2777	   0.0000	
 41.8391	  97.0745	   0.0000	
 47.4663	  88.9701	   0.0000	
 57.6956	  79.8590	   0.0000	
 26.0477	  58.2570	   0.0000	
 22.3902	  64.1364	   0.0000	
 26.9739	  67.6325	   0.0000	
 28.3973	  71.6270	   0.0000	
 25.6162	  73.8777	   0.0000	
 27.0607	  76.7392	   0.0000	
 26.4397	  78.4017	   0.0000	
 32.5664	  75.9565	   0.0000	
 34.0956	  75.4461	   0.0000	
 26.6458	  81.8103	   0.0000	
 34.8950	  88.5542	   0.0000	
 39.6918	  92.2316	   0.0000	
 39.1763	  90.3193	   0.0000	
 42.7417	  91.5879	   0.0000	
 42.2319	  98.2876	   0.0000	
 35.2780	 104.3797	   0.0000	
 40.7666	 103.7008	   0.0000	
 55.0989	  92.2866	   0.0000	
 55.4574	  80.8896	   0.0000	
 19.9597	  53.7483	   0.0000	
 22.7939	  56.7138	   0.0000	
 11.7938	  66.8442	   0.0000	
 20.6350	  80.8600	   0.0000	
 22.7291	  86.3472	   0.0000	
 25.0660	  89.4086	   0.0000	
 32.5375	  87.9848	   0.0000	
 33.9350	  87.3311	   0.0000	
 24.0591	  94.5073	   0.0000	
 30.2515	  92.3399	   0.0000	
 26.1471	  89.3549	   0.0000	
 31.4629	  96.5571	   0.0000	
 42.3029	 101.2979	   0.0000	
 36.9823	  99.5546	   0.0000	
 33.6790	 106.5363	   0.0000	
 34.2029	 110.0040	   0.0000	
 49.7353	  98.5117	   0.0000	
 46.9559	  86.6562	   0.0000	
 66.2326	  73.3177	   0.0000	
  2.2558	  46.1992	   0.0000	
 -4.8608	  53.9638	   0.0000	
 10.1606	  62.7663	   0.0000	
 15.0001	  68.6159	   0.0000	
 19.8123	  72.5806	   0.0000	
 32.0319	  74.0561	   0.0000	
 33.5029	  74.0979	   0.0000	
 18.6082	  79.8172	   0.0000	
 27.6113	  79.9286	   0.0000	
 21.0301	  84.5847	   0.0000	
 31.0961	  91.2423	   0.0000	
 16.8406	  90.2903	   0.0000	
 27.2602	  99.0123	   0.0000	
 43.2067	 103.4190	   0.0000	
 24.2482	 112.6687	   0.0000	
 33.2083	 119.3911	   0.0000	
 33.2453	 113.5939	   0.0000	
 65.0560	 106.2345	   0.0000	
 73.7730	  87.7403	   0.0000	
 -6.6851	  62.1082	   0.0000	
  3.0763	  69.9919	   0.0000	
  8.0530	  75.6817	   0.0000	
 20.5633	  79.8873	   0.0000	
 30.4327	  84.2931	   0.0000	
 28.6298	  84.5032	   0.0000	
 11.3192	  93.1847	   0.0000	
 20.5255	  97.1936	   0.0000	
 16.7287	 103.8769	   0.0000	
 12.6777	 108.8535	   0.0000	
 15.3817	 113.3920	   0.0000	
 21.6409	 121.4821	   0.0000	
  2.6959	 126.4169	   0.0000	
 20.3408	 132.5315	   0.0000	
 14.5366	 146.4987	   0.0000	
  8.6770	 158.2735	   0.0000	
 25.8874	 152.4860	   0.0000	
 54.8328	 135.7323	   0.0000	
 67.4162	 110.3450	   0.0000	
 -2.2379	  28.7486	   0.0000	
  4.1078	  34.0892	   0.0000	
 12.8785	  40.1787	   0.0000	
 24.3579	  47.5373	   0.0000	
  0.5205	  56.3579	   0.0000	
  0.5421	  57.1514	   0.0000	
  8.1376	  61.3153	   0.0000	
  0.5497	  65.0838	   0.0000	
  6.2316	  68.4450	   0.0000	
  0.4287	  71.3143	   0.0000	
  5.7271	  74.1499	   0.0000	
  0.7616	  77.2120	   0.0000	
  6.6038	  80.6773	   0.0000	
 -0.9917	  83.1654	   0.0000	
  0.2808	  82.6676	   0.0000	
 -4.9525	  87.2128	   0.0000	
 -0.7282	  85.9057	   0.0000	
 21.8307	  81.8021	   0.0000	
 56.1345	  72.6988	   0.0000	
 -0.0000	  -0.0000	   0.0000	
  0.0000	   0.0000	   0.0000	
 -0.0000	   0.0000	   0.0000	
 -0.0000	   0.0000	   0.0000	
  0.0000	  -0.0000	   0.0000	
 -0.0000	   0.0000	   0.0000	
  0.0000	   0.0000	   0.0000	
  0.0000	  -0.0000	   0.0000	
 -0.0000	  -0.0000	   0.0000	
  0.0000	   0.0000	   0.0000	
  0.0000	   0.0000	   0.0000	
  0.0000	  -0.0000	   0.0000	
 -0.0000	   0.0000	   0.0000	
 -0.0000	   0.0000	   0.0000	
 -0.0000	  -0.0000	   0.0000	
 -0.0000	  -0.0000	   0.0000	
  0.0000	  -0.0000	   0.0000	
 -0.0000	  -0.0000	   0.0000	
  0.0000	   0.0000	   0.0000	
 50.0000	  50.0000	   0.0000	
 50.0000	  -0.0000	   0.0000	
 68.2710	  50.1044	   0.0000	
 49.9975	  15.7981	   0.0000	
 85.9146	  50.1869	   0.0000	
 49.2303	  31.6163	   0.0000	
 83.1880	  54.9203	   0.0000	
 50.8781	  47.8161	   0.0000	
 82.4363	  58.8085	   0.0000	
 51.9644	  64.1565	   0.0000	
 54.9078	  78.6255	   0.0000	
 48.1095	  77.6401	   0.0000	
 49.8920	  79.3544	   0.0000	
 78.6092	 104.8894	   0.0000	
 46.2398	  77.5609	   0.0000	
 66.3412	  92.8411	   0.0000	
 45.1753	  74.3080	   0.0000	
 58.2649	  84.5431	   0.0000	
 49.3431	  68.5310	   0.0000	
 53.6659	  79.2755	   0.0000	
 47.8340	  66.7407	   0.0000	
 52.7030	  76.8097	   0.0000	
 44.5732	  65.5826	   0.0000	
 56.6655	  76.9643	   0.0000	
 38.9241	  65.1085	   0.0000	
 64.0954	  78.2351	   0.0000	
 41.9094	  59.3951	   0.0000	
 49.1060	  68.1526	   0.0000	
 34.9712	  57.4241	   0.0000	
 61.3336	  70.3175	   0.0000	
 27.2765	  55.1345	   0.0000	
 67.8012	  68.8998	   0.0000	
 17.6174	  52.3647	   0.0000	
 68.6523	  63.5816	   0.0000	
 19.6688	  40.5498	   0.0000	
 78.6771	  60.9951	   0.0000	
-22.2318	  51.4476	   0.0000	
113.6469	  71.4809	   0.0000	
 -8.8078	  22.5625	   0.0000	
103.9605	  47.0436	   0.0000	
 -0.0000	   0.0000	   0.0000	
 -0.0000	  -0.0000	   0.0000	
 50.3810	  50.0000	   0.0000	
 85.6941	 153.5697	   0.0000	
 48.9359	  49.2081	   0.0000	
 51.1835	 136.9227	   0.0000	
 46.7995	  48.6766	   0.0000	
 35.9065	 121.8712	   0.0000	
 46.2833	  47.2932	   0.0000	
 26.3515	 109.2277	   0.0000	
 43.8545	  46.9324	   0.0000	
 26.8880	 103.5218	   0.0000	
 43.2400	  45.8723	   0.0000	
 26.4202	  98.8448	   0.0000	
 43.8395	  45.1421	   0.0000	
 26.7285	  95.2961	   0.0000	
 44.5715	  44.0066	   0.0000	
 27.1375	  91.6818	   0.0000	
 43.5962	  43.4585	   0.0000	
 29.7818	  88.6588	   0.0000	
 40.0773	  43.8778	   0.0000	
 33.3031	  85.4837	   0.0000	
 40.3871	  42.4002	   0.0000	
 38.0479	  82.7257	   0.0000	
 46.6101	  38.6452	   0.0000	
 28.0595	  74.3607	   0.0000	
 41.2768	  38.9548	   0.0000	
 38.1418	  73.3159	   0.0000	
 40.6813	  36.1206	   0.0000	
 40.8321	  68.0497	   0.0000	
 38.4062	  32.3308	   0.0000	
 42.0821	  62.1969	   0.0000	
 41.3280	  26.5795	   0.0000	
 47.4630	  54.3307	   0.0000	
 21.5826	  26.1666	   0.0000	
 67.9347	  49.9915	   0.0000	
 18.1585	  18.1613	   0.0000	
 68.9201	  37.0488	   0.0000	
 34.9884	   2.4699	   0.0000	
 60.3707	  20.5619	   0.0000	
 24.4430	   0.5549	   0.0000	
 -1.1727	  -1.2281	   0.0000	
 -0.0000	   0.0000	   0.0000	
 -0.0000	  -0.0000	   0.0000	
 57.8218	  50.0000	   0.0000	
-42.7818	  68.5418	   0.0000	
 52.8715	  50.8247	   0.0000	
-11.3936	  69.9057	   0.0000	
 50.2330	  51.1760	   0.0000	
  3.3249	  69.7254	   0.0000	
 47.4658	  51.8932	   0.0000	
 10.7299	  69.1572	   0.0000	
 47.5364	  52.1323	   0.0000	
 12.7341	  67.7892	   0.0000	
 48.2966	  52.4759	   0.0000	
 13.4618	  66.5070	   0.0000	
 47.6474	  53.1672	   0.0000	
 14.7131	  64.8433	   0.0000	
 47.0318	  53.0678	   0.0000	
 16.7177	  62.9145	   0.0000	
 46.7143	  53.7780	   0.0000	
 17.9715	  61.1752	   0.0000	
 45.6876	  54.3607	   0.0000	
 20.9708	  60.0715	   0.0000	
 51.7810	  53.9767	   0.0000	
 15.4725	  58.1988	   0.0000	
 51.6863	  54.2634	   0.0000	
 17.3412	  55.2079	   0.0000	
 55.3550	  54.2154	   0.0000	
 18.6387	  52.2192	   0.0000	
 57.3471	  54.7053	   0.0000	
 10.4225	  48.2514	   0.0000	
 60.9485	  54.6700	   0.0000	
 14.9204	  45.2235	   0.0000	
 61.2161	  51.6458	   0.0000	
 20.2167	  38.7778	   0.0000	
 59.4003	  50.1675	   0.0000	
 24.2490	  34.2774	   0.0000	
 64.3150	  49.9868	   0.0000	
 27.6590	  30.1928	   0.0000	
 61.1082	  48.5954	   0.0000	
  2.2195	  30.1130	   0.0000	
 37.8749	  47.7329	   0.0000	
  3.4652	  35.4537	   0.0000	
 27.4152	  44.9011	   0.0000	
 -0.0892	  37.7798	   0.0000	
 44.2287	  50.0000	   0.0000	
 11.5097	  55.0079	   0.0000	
 46.2911	  51.1139	   0.0000	
 -2.2906	  60.1104	   0.0000	
 44.8620	  51.4576	   0.0000	
  1.3787	  60.6974	   0.0000	
 43.2056	  51.5382	   0.0000	
  5.2443	  60.1081	   0.0000	
 42.9746	  51.9849	   0.0000	
  6.5504	  59.9949	   0.0000	
 43.1642	  52.5374	   0.0000	
  7.4574	  59.9521	   0.0000	
 41.5736	  52.6903	   0.0000	
 10.1795	  59.2061	   0.0000	
 42.1633	  53.5775	   0.0000	
  8.7298	  60.1204	   0.0000	
 43.2692	  54.1479	   0.0000	
 11.2853	  59.2910	   0.0000	
 42.7506	  54.9126	   0.0000	
 13.2255	  58.9645	   0.0000	
 44.0745	  56.2669	   0.0000	
 14.3349	  59.2054	   0.0000	
 44.6330	  57.2305	   0.0000	
 12.0693	  59.3004	   0.0000	
 46.2920	  59.1922	   0.0000	
  6.5009	  61.1722	   0.0000	
 47.2570	  61.3966	   0.0000	
 11.3732	  61.3885	   0.0000	
 47.5942	  62.8792	   0.0000	
 10.0363	  61.4673	   0.0000	
 55.0571	  67.8812	   0.0000	
  6.5471	  63.1798	   0.0000	
 51.9609	  70.1185	   0.0000	
 10.3075	  62.1426	   0.0000	
 50.4058	  73.1887	   0.0000	
 14.9016	  60.6762	   0.0000	
 51.2726	  76.4910	   0.0000	
 19.7440	  58.1147	   0.0000	
 43.6701	  80.7169	   0.0000	
 19.2558	  64.1256	   0.0000	
 23.8507	  80.4464	   0.0000	
 21.1786	  68.2222	   0.0000	
 46.0378	  50.0000	   0.0000	
 -0.9254	  45.7849	   0.0000	
 45.5871	  49.7523	   0.0000	
  2.6222	  45.0184	   0.0000	
 44.6052	  49.6185	   0.0000	
  5.2767	  44.3274	   0.0000	
 43.2092	  49.2386	   0.0000	
  8.0935	  43.6049	   0.0000	
 43.2113	  49.4898	   0.0000	
  6.6634	  45.3600	   0.0000	
 43.1820	  49.7117	   0.0000	
  5.5871	  47.3234	   0.0000	
 41.9418	  49.2723	   0.0000	
  7.1389	  47.5976	   0.0000	
 41.8592	  49.5454	   0.0000	
  8.1650	  48.5764	   0.0000	
 41.1913	  49.5674	   0.0000	
 10.0950	  48.8387	   0.0000	
 40.2522	  49.2036	   0.0000	
 11.1611	  49.3593	   0.0000	
 42.1285	  50.4648	   0.0000	
  9.9834	  51.0919	   0.0000	
 37.9835	  49.1527	   0.0000	
 15.1297	  49.6461	   0.0000	
 39.5387	  50.8009	   0.0000	
 15.0464	  50.6660	   0.0000	
 40.4418	  51.9908	   0.0000	
 12.7296	  52.7438	   0.0000	
 40.2906	  53.7963	   0.0000	
 14.6734	  54.6300	   0.0000	
 39.7075	  54.8040	   0.0000	
 14.0854	  55.9365	   0.0000	
 39.2712	  57.4290	   0.0000	
 14.3699	  58.3249	   0.0000	
 40.4746	  62.3301	   0.0000	
 14.1637	  61.3146	   0.0000	
 36.4977	  64.7508	   0.0000	
 21.1088	  61.1073	   0.0000	
 42.1232	  70.9122	   0.0000	
 17.4252	  64.2173	   0.0000	
 24.8124	  69.3064	   0.0000	
 37.2323	  58.6373	   0.0000	
 51.8547	  50.0000	   0.0000	
  0.8907	  31.1905	   0.0000	
 49.0554	  49.4481	   0.0000	
  2.3548	  32.5328	   0.0000	
 46.0141	  48.8408	   0.0000	
  3.7789	  33.8892	   0.0000	
 44.8867	  48.7247	   0.0000	
  5.1082	  35.2387	   0.0000	
 45.3669	  49.1793	   0.0000	
  7.3852	  36.2588	   0.0000	
 45.5128	  49.5516	   0.0000	
  8.0036	  38.1936	   0.0000	
 42.4759	  47.6412	   0.0000	
  9.2367	  39.0884	   0.0000	
 41.8916	  47.6844	   0.0000	
 10.3240	  39.4252	   0.0000	
 41.7905	  48.0835	   0.0000	
 10.9897	  40.2925	   0.0000	
 40.8177	  48.1348	   0.0000	
 12.1558	  41.6847	   0.0000	
 40.4401	  48.3112	   0.0000	
 13.8874	  42.6722	   0.0000	
 39.5538	  48.2524	   0.0000	
 14.9348	  43.8062	   0.0000	
 39.3784	  48.8227	   0.0000	
 15.5230	  45.5729	   0.0000	
 38.9138	  49.5056	   0.0000	
 15.6257	  47.5030	   0.0000	
 38.6796	  48.7580	   0.0000	
 15.9397	  47.5325	   0.0000	
 37.9882	  49.2716	   0.0000	
 16.1470	  48.4470	   0.0000	
 34.9808	  48.7087	   0.0000	
 23.9310	  46.4156	   0.0000	
 37.8649	  52.3628	   0.0000	
 17.3260	  53.4772	   0.0000	
 34.2181	  51.7092	   0.0000	
 21.8421	  53.1925	   0.0000	
 31.1550	  52.2463	   0.0000	
 22.7333	  55.7564	   0.0000	
 32.6137	  57.5343	   0.0000	
 21.4148	  58.3163	   0.0000	
  0.0000	   0.0000	   0.0000	
  0.0000	   0.0000	   0.0000	
 -0.0000	   0.0000	   0.0000	
  0.0000	  -0.0000	   0.0000	
 -0.0000	   0.0000	   0.0000	
  0.0000	   0.0000	   0.0000	
 -0.0000	   0.0000	   0.0000	
 -0.0000	  -0.0000	   0.0000	
 -0.0000	  -0.0000	   0.0000	
 -0.0000	   0.0000	   0.0000	
 -0.0000	  -0.0000	   0.0000	
 -0.0000	  -0.0000	   0.0000	
 -0.0000	   0.0000	   0.0000	
 -0.0000	  -0.0000	   0.0000	