# vtk DataFile Version 3.0 
Results 
ASCII 
DATASET UNSTRUCTURED_GRID 
POINTS 	    1085 float 
  0.0000	   0.6667	  0.0000	 
  0.0000	   1.3333	  0.0000	 
  0.0000	   2.0000	  0.0000	 
  0.0000	   2.6667	  0.0000	 
  0.0000	   3.3333	  0.0000	 
  0.0000	   4.0000	  0.0000	 
  0.0000	   4.6667	  0.0000	 
  0.0000	   5.3333	  0.0000	 
  0.0000	   6.0000	  0.0000	 
  0.0000	   6.6667	  0.0000	 
  0.0000	   7.3333	  0.0000	 
  0.0000	   8.0000	  0.0000	 
  0.0000	   8.6667	  0.0000	 
  0.0000	   9.3333	  0.0000	 
  0.0000	  10.0000	  0.0000	 
  0.0000	  10.6667	  0.0000	 
  0.0000	  11.3333	  0.0000	 
  0.2500	   0.9383	  0.0000	 
  0.2500	   1.5710	  0.0000	 
  0.2500	   2.2037	  0.0000	 
  0.2500	   2.8364	  0.0000	 
  0.2500	   3.4691	  0.0000	 
  0.2500	   4.1019	  0.0000	 
  0.2500	   4.7346	  0.0000	 
  0.2500	   5.3673	  0.0000	 
  0.2500	   6.0000	  0.0000	 
  0.2500	   6.6327	  0.0000	 
  0.2500	   7.2654	  0.0000	 
  0.2500	   7.8981	  0.0000	 
  0.2500	   8.5309	  0.0000	 
  0.2500	   9.1636	  0.0000	 
  0.2500	   9.7963	  0.0000	 
  0.2500	  10.4290	  0.0000	 
  0.2500	  11.0617	  0.0000	 
  0.5000	   1.2099	  0.0000	 
  0.5000	   1.8086	  0.0000	 
  0.5000	   2.4074	  0.0000	 
  0.5000	   3.0062	  0.0000	 
  0.5000	   3.6049	  0.0000	 
  0.5000	   4.2037	  0.0000	 
  0.5000	   4.8025	  0.0000	 
  0.5000	   5.4012	  0.0000	 
  0.5000	   6.0000	  0.0000	 
  0.5000	   6.5988	  0.0000	 
  0.5000	   7.1975	  0.0000	 
  0.5000	   7.7963	  0.0000	 
  0.5000	   8.3951	  0.0000	 
  0.5000	   8.9938	  0.0000	 
  0.5000	   9.5926	  0.0000	 
  0.5000	  10.1914	  0.0000	 
  0.5000	  10.7901	  0.0000	 
  0.7500	   1.4815	  0.0000	 
  0.7500	   2.0463	  0.0000	 
  0.7500	   2.6111	  0.0000	 
  0.7500	   3.1759	  0.0000	 
  0.7500	   3.7407	  0.0000	 
  0.7500	   4.3056	  0.0000	 
  0.7500	   4.8704	  0.0000	 
  0.7500	   5.4352	  0.0000	 
  0.7500	   6.0000	  0.0000	 
  0.7500	   6.5648	  0.0000	 
  0.7500	   7.1296	  0.0000	 
  0.7500	   7.6944	  0.0000	 
  0.7500	   8.2593	  0.0000	 
  0.7500	   8.8241	  0.0000	 
  0.7500	   9.3889	  0.0000	 
  0.7500	   9.9537	  0.0000	 
  0.7500	  10.5185	  0.0000	 
  1.0000	   1.7531	  0.0000	 
  1.0000	   2.2840	  0.0000	 
  1.0000	   2.8148	  0.0000	 
  1.0000	   3.3457	  0.0000	 
  1.0000	   3.8765	  0.0000	 
  1.0000	   4.4074	  0.0000	 
  1.0000	   4.9383	  0.0000	 
  1.0000	   5.4691	  0.0000	 
  1.0000	   6.0000	  0.0000	 
  1.0000	   6.5309	  0.0000	 
  1.0000	   7.0617	  0.0000	 
  1.0000	   7.5926	  0.0000	 
  1.0000	   8.1235	  0.0000	 
  1.0000	   8.6543	  0.0000	 
  1.0000	   9.1852	  0.0000	 
  1.0000	   9.7160	  0.0000	 
  1.0000	  10.2469	  0.0000	 
  1.2500	   2.0247	  0.0000	 
  1.2500	   2.5216	  0.0000	 
  1.2500	   3.0185	  0.0000	 
  1.2500	   3.5154	  0.0000	 
  1.2500	   4.0123	  0.0000	 
  1.2500	   4.5093	  0.0000	 
  1.2500	   5.0062	  0.0000	 
  1.2500	   5.5031	  0.0000	 
  1.2500	   6.0000	  0.0000	 
  1.2500	   6.4969	  0.0000	 
  1.2500	   6.9938	  0.0000	 
  1.2500	   7.4907	  0.0000	 
  1.2500	   7.9877	  0.0000	 
  1.2500	   8.4846	  0.0000	 
  1.2500	   8.9815	  0.0000	 
  1.2500	   9.4784	  0.0000	 
  1.2500	   9.9753	  0.0000	 
  1.5000	   2.2963	  0.0000	 
  1.5000	   2.7593	  0.0000	 
  1.5000	   3.2222	  0.0000	 
  1.5000	   3.6852	  0.0000	 
  1.5000	   4.1481	  0.0000	 
  1.5000	   4.6111	  0.0000	 
  1.5000	   5.0741	  0.0000	 
  1.5000	   5.5370	  0.0000	 
  1.5000	   6.0000	  0.0000	 
  1.5000	   6.4630	  0.0000	 
  1.5000	   6.9259	  0.0000	 
  1.5000	   7.3889	  0.0000	 
  1.5000	   7.8519	  0.0000	 
  1.5000	   8.3148	  0.0000	 
  1.5000	   8.7778	  0.0000	 
  1.5000	   9.2407	  0.0000	 
  1.5000	   9.7037	  0.0000	 
  1.7500	   2.5679	  0.0000	 
  1.7500	   2.9969	  0.0000	 
  1.7500	   3.4259	  0.0000	 
  1.7500	   3.8549	  0.0000	 
  1.7500	   4.2840	  0.0000	 
  1.7500	   4.7130	  0.0000	 
  1.7500	   5.1420	  0.0000	 
  1.7500	   5.5710	  0.0000	 
  1.7500	   6.0000	  0.0000	 
  1.7500	   6.4290	  0.0000	 
  1.7500	   6.8580	  0.0000	 
  1.7500	   7.2870	  0.0000	 
  1.7500	   7.7160	  0.0000	 
  1.7500	   8.1451	  0.0000	 
  1.7500	   8.5741	  0.0000	 
  1.7500	   9.0031	  0.0000	 
  1.7500	   9.4321	  0.0000	 
  2.0000	   2.8395	  0.0000	 
  2.0000	   3.2346	  0.0000	 
  2.0000	   3.6296	  0.0000	 
  2.0000	   4.0247	  0.0000	 
  2.0000	   4.4198	  0.0000	 
  2.0000	   4.8148	  0.0000	 
  2.0000	   5.2099	  0.0000	 
  2.0000	   5.6049	  0.0000	 
  2.0000	   6.0000	  0.0000	 
  2.0000	   6.3951	  0.0000	 
  2.0000	   6.7901	  0.0000	 
  2.0000	   7.1852	  0.0000	 
  2.0000	   7.5802	  0.0000	 
  2.0000	   7.9753	  0.0000	 
  2.0000	   8.3704	  0.0000	 
  2.0000	   8.7654	  0.0000	 
  2.0000	   9.1605	  0.0000	 
  2.2500	   3.1111	  0.0000	 
  2.2500	   3.4722	  0.0000	 
  2.2500	   3.8333	  0.0000	 
  2.2500	   4.1944	  0.0000	 
  2.2500	   4.5556	  0.0000	 
  2.2500	   4.9167	  0.0000	 
  2.2500	   5.2778	  0.0000	 
  2.2500	   5.6389	  0.0000	 
  2.2500	   6.0000	  0.0000	 
  2.2500	   6.3611	  0.0000	 
  2.2500	   6.7222	  0.0000	 
  2.2500	   7.0833	  0.0000	 
  2.2500	   7.4444	  0.0000	 
  2.2500	   7.8056	  0.0000	 
  2.2500	   8.1667	  0.0000	 
  2.2500	   8.5278	  0.0000	 
  2.2500	   8.8889	  0.0000	 
  2.5000	   3.3827	  0.0000	 
  2.5000	   3.7099	  0.0000	 
  2.5000	   4.0370	  0.0000	 
  2.5000	   4.3642	  0.0000	 
  2.5000	   4.6914	  0.0000	 
  2.5000	   5.0185	  0.0000	 
  2.5000	   5.3457	  0.0000	 
  2.5000	   5.6728	  0.0000	 
  2.5000	   6.0000	  0.0000	 
  2.5000	   6.3272	  0.0000	 
  2.5000	   6.6543	  0.0000	 
  2.5000	   6.9815	  0.0000	 
  2.5000	   7.3086	  0.0000	 
  2.5000	   7.6358	  0.0000	 
  2.5000	   7.9630	  0.0000	 
  2.5000	   8.2901	  0.0000	 
  2.5000	   8.6173	  0.0000	 
  2.7500	   3.6543	  0.0000	 
  2.7500	   3.9475	  0.0000	 
  2.7500	   4.2407	  0.0000	 
  2.7500	   4.5340	  0.0000	 
  2.7500	   4.8272	  0.0000	 
  2.7500	   5.1204	  0.0000	 
  2.7500	   5.4136	  0.0000	 
  2.7500	   5.7068	  0.0000	 
  2.7500	   6.0000	  0.0000	 
  2.7500	   6.2932	  0.0000	 
  2.7500	   6.5864	  0.0000	 
  2.7500	   6.8796	  0.0000	 
  2.7500	   7.1728	  0.0000	 
  2.7500	   7.4660	  0.0000	 
  2.7500	   7.7593	  0.0000	 
  2.7500	   8.0525	  0.0000	 
  2.7500	   8.3457	  0.0000	 
  3.0000	   3.9259	  0.0000	 
  3.0000	   4.1852	  0.0000	 
  3.0000	   4.4444	  0.0000	 
  3.0000	   4.7037	  0.0000	 
  3.0000	   4.9630	  0.0000	 
  3.0000	   5.2222	  0.0000	 
  3.0000	   5.4815	  0.0000	 
  3.0000	   5.7407	  0.0000	 
  3.0000	   6.0000	  0.0000	 
  3.0000	   6.2593	  0.0000	 
  3.0000	   6.5185	  0.0000	 
  3.0000	   6.7778	  0.0000	 
  3.0000	   7.0370	  0.0000	 
  3.0000	   7.2963	  0.0000	 
  3.0000	   7.5556	  0.0000	 
  3.0000	   7.8148	  0.0000	 
  3.0000	   8.0741	  0.0000	 
  3.2500	   4.1975	  0.0000	 
  3.2500	   4.4228	  0.0000	 
  3.2500	   4.6481	  0.0000	 
  3.2500	   4.8735	  0.0000	 
  3.2500	   5.0988	  0.0000	 
  3.2500	   5.3241	  0.0000	 
  3.2500	   5.5494	  0.0000	 
  3.2500	   5.7747	  0.0000	 
  3.2500	   6.0000	  0.0000	 
  3.2500	   6.2253	  0.0000	 
  3.2500	   6.4506	  0.0000	 
  3.2500	   6.6759	  0.0000	 
  3.2500	   6.9012	  0.0000	 
  3.2500	   7.1265	  0.0000	 
  3.2500	   7.3519	  0.0000	 
  3.2500	   7.5772	  0.0000	 
  3.2500	   7.8025	  0.0000	 
  3.5000	   4.4691	  0.0000	 
  3.5000	   4.6605	  0.0000	 
  3.5000	   4.8519	  0.0000	 
  3.5000	   5.0432	  0.0000	 
  3.5000	   5.2346	  0.0000	 
  3.5000	   5.4259	  0.0000	 
  3.5000	   5.6173	  0.0000	 
  3.5000	   5.8086	  0.0000	 
  3.5000	   6.0000	  0.0000	 
  3.5000	   6.1914	  0.0000	 
  3.5000	   6.3827	  0.0000	 
  3.5000	   6.5741	  0.0000	 
  3.5000	   6.7654	  0.0000	 
  3.5000	   6.9568	  0.0000	 
  3.5000	   7.1481	  0.0000	 
  3.5000	   7.3395	  0.0000	 
  3.5000	   7.5309	  0.0000	 
  3.7500	   4.7407	  0.0000	 
  3.7500	   4.8981	  0.0000	 
  3.7500	   5.0556	  0.0000	 
  3.7500	   5.2130	  0.0000	 
  3.7500	   5.3704	  0.0000	 
  3.7500	   5.5278	  0.0000	 
  3.7500	   5.6852	  0.0000	 
  3.7500	   5.8426	  0.0000	 
  3.7500	   6.0000	  0.0000	 
  3.7500	   6.1574	  0.0000	 
  3.7500	   6.3148	  0.0000	 
  3.7500	   6.4722	  0.0000	 
  3.7500	   6.6296	  0.0000	 
  3.7500	   6.7870	  0.0000	 
  3.7500	   6.9444	  0.0000	 
  3.7500	   7.1019	  0.0000	 
  3.7500	   7.2593	  0.0000	 
  4.0000	   5.0123	  0.0000	 
  4.0000	   5.1358	  0.0000	 
  4.0000	   5.2593	  0.0000	 
  4.0000	   5.3827	  0.0000	 
  4.0000	   5.5062	  0.0000	 
  4.0000	   5.6296	  0.0000	 
  4.0000	   5.7531	  0.0000	 
  4.0000	   5.8765	  0.0000	 
  4.0000	   6.0000	  0.0000	 
  4.0000	   6.1235	  0.0000	 
  4.0000	   6.2469	  0.0000	 
  4.0000	   6.3704	  0.0000	 
  4.0000	   6.4938	  0.0000	 
  4.0000	   6.6173	  0.0000	 
  4.0000	   6.7407	  0.0000	 
  4.0000	   6.8642	  0.0000	 
  4.0000	   6.9877	  0.0000	 
  4.2500	   5.2840	  0.0000	 
  4.2500	   5.3735	  0.0000	 
  4.2500	   5.4630	  0.0000	 
  4.2500	   5.5525	  0.0000	 
  4.2500	   5.6420	  0.0000	 
  4.2500	   5.7315	  0.0000	 
  4.2500	   5.8210	  0.0000	 
  4.2500	   5.9105	  0.0000	 
  4.2500	   6.0000	  0.0000	 
  4.2500	   6.0895	  0.0000	 
  4.2500	   6.1790	  0.0000	 
  4.2500	   6.2685	  0.0000	 
  4.2500	   6.3580	  0.0000	 
  4.2500	   6.4475	  0.0000	 
  4.2500	   6.5370	  0.0000	 
  4.2500	   6.6265	  0.0000	 
  4.2500	   6.7160	  0.0000	 
  4.5000	   5.5556	  0.0000	 
  4.5000	   5.6111	  0.0000	 
  4.5000	   5.6667	  0.0000	 
  4.5000	   5.7222	  0.0000	 
  4.5000	   5.7778	  0.0000	 
  4.5000	   5.8333	  0.0000	 
  4.5000	   5.8889	  0.0000	 
  4.5000	   5.9444	  0.0000	 
  4.5000	   6.0000	  0.0000	 
  4.5000	   6.0556	  0.0000	 
  4.5000	   6.1111	  0.0000	 
  4.5000	   6.1667	  0.0000	 
  4.5000	   6.2222	  0.0000	 
  4.5000	   6.2778	  0.0000	 
  4.5000	   6.3333	  0.0000	 
  4.5000	   6.3889	  0.0000	 
  4.5000	   6.4444	  0.0000	 
  0.0000	   0.0000	  0.0000	 
  0.0000	  12.0000	  0.0000	 
  0.2500	   0.3056	  0.0000	 
  0.2500	  11.6944	  0.0000	 
  0.5000	   0.6111	  0.0000	 
  0.5000	  11.3889	  0.0000	 
  0.7500	   0.9167	  0.0000	 
[...]
POINT_DATA 	    1085 
VECTORS U float 
 51.3000	  -0.0000	   0.0000	
 51.3000	   0.0000	   0.0000	
 51.3000	  -0.0000	   0.0000	
 51.3000	   0.0000	   0.0000	
 51.3000	   0.0000	   0.0000	
 51.3000	   0.0000	   0.0000	
 51.3000	   0.0000	   0.0000	
 51.3000	  -0.0000	   0.0000	
 51.3000	   0.0000	   0.0000	
 51.3000	  -0.0000	   0.0000	
 51.3000	   0.0000	   0.0000	
 51.3000	  -0.0000	   0.0000	
 51.3000	  -0.0000	   0.0000	
 51.3000	   0.0000	   0.0000	
 51.3000	  -0.0000	   0.0000	
 51.3000	   0.0000	   0.0000	
 51.3000	  -0.0000	   0.0000	
 42.2919	  13.6060	   0.0000	
 53.4327	   1.8073	   0.0000	
 50.4276	  13.7690	   0.0000	
 51.3430	   0.3734	   0.0000	
 51.1202	   7.8611	   0.0000	
 51.1986	   8.3373	   0.0000	
 51.5139	   7.5160	   0.0000	
 51.1978	   7.5543	   0.0000	
 51.7613	   6.8034	   0.0000	
 51.3395	   5.1634	   0.0000	
 51.4377	   4.7672	   0.0000	
 51.5337	   3.8536	   0.0000	
 51.4675	   2.1776	   0.0000	
 51.2933	   1.4132	   0.0000	
 51.3426	   0.7307	   0.0000	
 51.2639	   0.9311	   0.0000	
 51.3940	   0.2408	   0.0000	
 54.7435	   4.5844	   0.0000	
 42.6092	  18.3538	   0.0000	
 61.6206	   3.3445	   0.0000	
 45.6016	  10.3053	   0.0000	
 50.9610	   6.7178	   0.0000	
 51.6115	   5.6934	   0.0000	
 51.5164	   5.7558	   0.0000	
 51.4403	   5.0222	   0.0000	
 51.6813	   5.4398	   0.0000	
 51.9240	   5.6302	   0.0000	
 51.5300	   4.4914	   0.0000	
 51.8432	   4.4347	   0.0000	
 52.2286	   3.5893	   0.0000	
 51.9476	   3.0245	   0.0000	
 51.7478	   1.9477	   0.0000	
 51.2168	   1.4554	   0.0000	
 51.7607	   0.9298	   0.0000	
 44.4872	  17.3833	   0.0000	
 58.8574	   2.5898	   0.0000	
 50.5125	  10.5488	   0.0000	
 51.1316	   4.2610	   0.0000	
 52.2440	   0.5318	   0.0000	
 51.7842	  -1.1914	   0.0000	
 51.9406	  -2.2088	   0.0000	
 51.2358	  -2.0479	   0.0000	
 51.2206	  -1.0791	   0.0000	
 51.6337	   0.3965	   0.0000	
 51.8312	   1.3523	   0.0000	
 51.5605	   1.7350	   0.0000	
 52.3123	   2.6209	   0.0000	
 51.8784	   3.4063	   0.0000	
 52.0249	   2.5880	   0.0000	
 51.7349	   2.4313	   0.0000	
 51.6604	   0.9675	   0.0000	
 55.1571	  -1.6707	   0.0000	
 55.9192	   3.8916	   0.0000	
 51.6210	   2.6531	   0.0000	
 53.5831	  -2.4259	   0.0000	
 52.7115	  -2.9375	   0.0000	
 52.0883	  -3.8442	   0.0000	
 51.7967	  -3.0476	   0.0000	
 50.7961	  -2.5294	   0.0000	
 50.9544	  -1.8329	   0.0000	
 50.9711	  -1.1997	   0.0000	
 51.4305	  -0.0711	   0.0000	
 51.2846	   0.7807	   0.0000	
 51.7721	   1.2414	   0.0000	
 51.5089	   2.2177	   0.0000	
 52.5501	   2.4459	   0.0000	
 51.6915	   2.5539	   0.0000	
 52.4981	   1.1005	   0.0000	
 54.6086	  -5.2911	   0.0000	
 52.5431	  -3.7159	   0.0000	
 54.1413	  -5.6070	   0.0000	
 53.2540	  -4.7329	   0.0000	
 53.0377	  -5.1173	   0.0000	
 51.4422	  -4.6738	   0.0000	
 51.4496	  -3.2691	   0.0000	
 50.3981	  -2.8676	   0.0000	
 50.5439	  -1.8605	   0.0000	
 50.6141	  -0.9498	   0.0000	
 50.9620	  -0.3607	   0.0000	
 50.9398	   0.4630	   0.0000	
 51.4413	   0.8004	   0.0000	
 51.2618	   1.3917	   0.0000	
 52.1871	   0.9667	   0.0000	
 51.6717	   2.1817	   0.0000	
 53.1798	   0.6756	   0.0000	
 53.4677	  -7.8265	   0.0000	
 53.6323	 -11.2008	   0.0000	
 52.6810	  -7.9640	   0.0000	
 53.0854	  -6.6849	   0.0000	
 52.4630	  -5.7037	   0.0000	
 50.4281	  -4.9880	   0.0000	
 51.2056	  -3.5613	   0.0000	
 49.7857	  -2.9400	   0.0000	
 50.0992	  -1.8842	   0.0000	
 50.0989	  -1.0286	   0.0000	
 50.6760	  -0.2232	   0.0000	
 50.5370	   0.3441	   0.0000	
 51.2116	   0.6834	   0.0000	
 51.1008	   0.9872	   0.0000	
 52.2512	   0.3052	   0.0000	
 51.2502	   1.0808	   0.0000	
 53.2533	  -0.4289	   0.0000	
 56.2333	  -5.3860	   0.0000	
 51.1695	  -8.2942	   0.0000	
 52.3195	  -6.3372	   0.0000	
 52.4663	  -5.5298	   0.0000	
 51.8500	  -5.0663	   0.0000	
 49.6250	  -5.2776	   0.0000	
 50.8651	  -3.6195	   0.0000	
 49.2231	  -3.6593	   0.0000	
 49.3833	  -2.1927	   0.0000	
 49.5699	  -0.8518	   0.0000	
 50.1502	  -0.0931	   0.0000	
 50.2092	   0.9772	   0.0000	
 50.8707	   1.1315	   0.0000	
 51.0252	   1.6802	   0.0000	
 52.1188	   0.8985	   0.0000	
 51.3655	   2.0171	   0.0000	
 53.0974	  -0.4889	   0.0000	
 55.9154	  -1.6235	   0.0000	
 50.5048	  -8.5430	   0.0000	
 51.8618	  -5.8315	   0.0000	
 51.8750	  -4.7425	   0.0000	
 51.6227	  -4.5442	   0.0000	
 48.5182	  -4.6949	   0.0000	
 50.8433	  -3.1941	   0.0000	
 48.2308	  -2.5009	   0.0000	
 48.9893	  -1.4916	   0.0000	
 48.7642	  -0.9053	   0.0000	
 49.7463	   0.0028	   0.0000	
 49.5196	   0.7763	   0.0000	
 50.7765	   1.0417	   0.0000	
 50.5856	   1.2694	   0.0000	
 52.0908	   0.9600	   0.0000	
 50.9437	   2.1310	   0.0000	
 53.6739	  -0.0214	   0.0000	
 58.6352	  -0.2449	   0.0000	
 49.4776	 -10.1023	   0.0000	
 51.0200	  -6.9663	   0.0000	
 51.6617	  -6.2825	   0.0000	
 51.3467	  -6.0459	   0.0000	
 47.6752	  -7.3992	   0.0000	
 50.1435	  -4.4804	   0.0000	
 47.5143	  -4.6386	   0.0000	
 47.6907	  -2.6400	   0.0000	
 48.2536	  -0.5374	   0.0000	
 48.9657	   0.2001	   0.0000	
 48.9802	   1.8196	   0.0000	
 50.3324	   1.5372	   0.0000	
 50.5067	   2.2850	   0.0000	
 51.4721	   1.6456	   0.0000	
 50.9311	   3.0452	   0.0000	
 53.2817	   0.4047	   0.0000	
 59.4050	   1.2624	   0.0000	
 48.0661	  -8.4453	   0.0000	
 50.6611	  -5.9161	   0.0000	
 50.8871	  -4.3746	   0.0000	
 51.7010	  -3.7668	   0.0000	
 45.5159	  -4.6508	   0.0000	
 50.4048	  -2.2013	   0.0000	
 46.3841	  -2.4543	   0.0000	
 47.0978	  -1.3440	   0.0000	
 47.0368	  -0.7006	   0.0000	
 48.4850	   0.1538	   0.0000	
 47.7169	   1.2817	   0.0000	
 50.4125	   1.0856	   0.0000	
 49.6797	   1.6876	   0.0000	
 51.4177	   1.7568	   0.0000	
 50.3582	   2.2892	   0.0000	
 53.4098	   0.0953	   0.0000	
 57.7146	  -0.2949	   0.0000	
 49.3647	  -9.5954	   0.0000	
 50.0711	 -10.4035	   0.0000	
 50.3640	 -10.0763	   0.0000	
 50.7424	  -7.5357	   0.0000	
 44.1401	 -10.6504	   0.0000	
 50.0237	  -6.3189	   0.0000	
 44.7038	  -4.9622	   0.0000	
 45.0094	  -2.6314	   0.0000	
 46.0300	   0.2433	   0.0000	
 47.4731	   1.7594	   0.0000	
 46.8049	   3.8338	   0.0000	
 49.9104	   2.6364	   0.0000	
 49.2881	   4.2763	   0.0000	
 50.3678	   3.7351	   0.0000	
 51.3151	   3.5063	   0.0000	
 52.5607	   0.8941	   0.0000	
 54.8574	  -0.6624	   0.0000	
 51.9250	  -1.5681	   0.0000	
 50.9382	  -5.7921	   0.0000	
 47.3910	  -5.8347	   0.0000	
 52.4977	  -3.7080	   0.0000	
 40.8839	  -7.8459	   0.0000	
 47.6188	  -0.0716	   0.0000	
 43.8097	  -2.3023	   0.0000	
 44.8430	  -1.6986	   0.0000	
 43.9897	  -1.7544	   0.0000	
 45.4825	  -0.7058	   0.0000	
 44.6982	   2.9725	   0.0000	
 50.4430	   1.5953	   0.0000	
 47.7294	   3.4793	   0.0000	
 50.6945	   2.3665	   0.0000	
 51.1989	   0.4657	   0.0000	
 53.0283	   0.2460	   0.0000	
 48.2070	 -11.6936	   0.0000	
 56.4145	  -7.2036	   0.0000	
 49.3694	 -11.5116	   0.0000	
 47.2685	 -15.0397	   0.0000	
 52.6768	  -8.1154	   0.0000	
 33.5524	 -13.4035	   0.0000	
 50.2436	  -9.3886	   0.0000	
 42.3343	  -8.0922	   0.0000	
 38.3077	  -1.8789	   0.0000	
 43.4285	   4.1616	   0.0000	
 44.6784	   5.2818	   0.0000	
 40.4615	   7.1232	   0.0000	
 49.8235	   5.5420	   0.0000	
 47.0684	   9.5708	   0.0000	
 50.7384	   5.8454	   0.0000	
 53.4559	   3.0786	   0.0000	
 48.7276	   5.6861	   0.0000	
 57.1241	  -5.5545	   0.0000	
 50.7670	  -5.8786	   0.0000	
 52.8541	  -6.9594	   0.0000	
 38.7805	  -9.9755	   0.0000	
 51.7766	   2.3253	   0.0000	
 36.5277	 -15.9569	   0.0000	
 44.2404	  -3.4045	   0.0000	
 34.7821	   0.7434	   0.0000	
 41.0505	  -1.9854	   0.0000	
 36.1220	  -3.5528	   0.0000	
 41.9498	   1.0012	   0.0000	
 41.2471	   5.0765	   0.0000	
 47.7103	  -2.3455	   0.0000	
 41.0998	   6.6422	   0.0000	
 52.4083	   3.4797	   0.0000	
 52.4460	   2.5459	   0.0000	
 53.9443	   2.1957	   0.0000	
 52.2244	 -17.8205	   0.0000	
 54.3091	 -16.4098	   0.0000	
 43.5355	 -23.1464	   0.0000	
 25.8632	 -26.7769	   0.0000	
 72.5658	  -9.8928	   0.0000	
 17.3404	 -19.3506	   0.0000	
 35.7136	  -7.2972	   0.0000	
 40.3602	 -10.6804	   0.0000	
 27.8377	  -0.9265	   0.0000	
 38.2393	   6.9247	   0.0000	
 33.7228	   7.3474	   0.0000	
 33.2902	  13.0847	   0.0000	
 56.4055	   9.6421	   0.0000	
 30.5617	  21.0440	   0.0000	
 47.8163	  15.8682	   0.0000	
 53.8768	   9.1377	   0.0000	
 52.0406	  10.7976	   0.0000	
 60.5976	 -13.0467	   0.0000	
 43.1824	 -22.8175	   0.0000	
  4.0230	 -27.7278	   0.0000	
 69.1931	 -20.9879	   0.0000	
 34.4768	 -12.5791	   0.0000	
  9.3242	 -19.6132	   0.0000	
 43.6080	 -17.4604	   0.0000	
 17.3760	  -4.2193	   0.0000	
 24.9304	  -3.5592	   0.0000	
 22.7199	  -1.0588	   0.0000	
 32.4003	   8.1265	   0.0000	
 23.0915	  12.5414	   0.0000	
 38.5781	  12.0047	   0.0000	
 52.3285	  17.2545	   0.0000	
 15.6881	  22.9555	   0.0000	
 50.7640	  15.1994	   0.0000	
 63.3335	   7.0652	   0.0000	
 21.1605	 -57.4970	   0.0000	
 52.7868	 -45.1024	   0.0000	
  7.7877	 -42.3135	   0.0000	
 45.4940	 -36.9352	   0.0000	
-17.3786	 -30.9855	   0.0000	
 42.2811	 -22.0080	   0.0000	
-11.9443	 -15.3201	   0.0000	
 19.9658	  -9.6550	   0.0000	
  3.0742	  -2.1096	   0.0000	
 16.1207	   5.2331	   0.0000	
  4.1409	  11.3176	   0.0000	
 20.6693	  18.2746	   0.0000	
  4.8992	  24.8200	   0.0000	
 33.3153	  31.4003	   0.0000	
 26.7098	  37.8774	   0.0000	
 37.5053	  44.1624	   0.0000	
 24.7738	  52.4942	   0.0000	
 -0.0000	   0.0000	   0.0000	
  0.0000	   0.0000	   0.0000	
  0.0000	   0.0000	   0.0000	
 -0.0000	   0.0000	   0.0000	
 -0.0000	  -0.0000	   0.0000	
 -0.0000	   0.0000	   0.0000	
 -0.0000	   0.0000	   0.0000	
 -0.0000	  -0.0000	   0.0000	
  0.0000	   0.0000	   0.0000	
 -0.0000	   0.0000	   0.0000	
 -0.0000	  -0.0000	   0.0000	
 -0.0000	  -0.0000	   0.0000	
 -0.0000	  -0.0000	   0.0000	
  0.0000	   0.0000	   0.0000	
  0.0000	   0.0000	   0.0000	
  0.0000	   0.0000	   0.0000	
  0.0000	  -0.0000	   0.0000	
 51.3000	  -0.0000	   0.0000	
 51.3000	  -0.0000	   0.0000	
 41.4370	  -1.8308	   0.0000	
 51.3005	   0.4011	   0.0000	
 13.3531	   2.0726	   0.0000	
 51.1483	   0.7718	   0.0000	
 41.4993	 -12.4910	   0.0000	
 51.6642	   1.3485	   0.0000	
 23.2848	  -4.9728	   0.0000	
 51.3833	   1.5327	   0.0000	
 46.6789	 -19.9402	   0.0000	
 51.1406	   1.6688	   0.0000	
 45.2305	 -18.1979	   0.0000	
 51.4951	   1.9898	   0.0000	
 44.2054	 -16.1301	   0.0000	
 51.1973	   1.9935	   0.0000	
 45.2192	 -15.5459	   0.0000	
 50.9239	   2.2057	   0.0000	
 43.6843	 -13.6390	   0.0000	
 51.5932	   3.1029	   0.0000	
 45.8940	 -13.7554	   0.0000	
 50.7502	   3.1477	   0.0000	
 47.0804	 -14.0381	   0.0000	
 50.7448	   4.1996	   0.0000	
 45.6766	 -13.0336	   0.0000	
 48.7911	   4.4034	   0.0000	
 49.4416	 -15.2828	   0.0000	
 51.2513	   7.4778	   0.0000	
 44.0551	 -12.3781	   0.0000	
 45.3848	   6.2206	   0.0000	
 53.2527	 -19.1194	   0.0000	
 52.2849	  13.7579	   0.0000	
 48.0848	 -17.8117	   0.0000	
 45.5811	  15.3385	   0.0000	
 73.4524	 -27.4936	   0.0000	
 74.8174	  25.6680	   0.0000	
  0.0000	   0.0000	   0.0000	
 -0.0000	   0.0000	   0.0000	
 57.2051	  -0.0000	   0.0000	
 54.9021	  -0.0000	   0.0000	
 48.1151	   0.8676	   0.0000	
 54.2921	   0.0082	   0.0000	
 51.3461	   0.3002	   0.0000	
 53.5930	  -0.0440	   0.0000	
 51.1413	   0.8550	   0.0000	
 53.6608	   0.1663	   0.0000	
 51.5931	   0.7862	   0.0000	
 53.9847	   0.4552	   0.0000	
 52.6831	   0.2770	   0.0000	
 54.0734	   0.6541	   0.0000	
 52.5999	   0.0967	   0.0000	
 53.9178	   0.7452	   0.0000	
 51.2684	   0.3193	   0.0000	
 54.4070	   1.0773	   0.0000	
 54.6194	  -1.3761	   0.0000	
 56.0126	   1.8763	   0.0000	
 54.8252	  -1.4884	   0.0000	
 56.1178	   2.3884	   0.0000	
 54.7199	  -1.7870	   0.0000	
 55.9637	   3.2107	   0.0000	
 57.4512	  -2.8253	   0.0000	
 58.3772	   3.9905	   0.0000	
 55.5119	  -2.6970	   0.0000	
 57.1172	   4.0598	   0.0000	
 58.8078	  -4.0910	   0.0000	
 56.5498	   3.5869	   0.0000	
 62.1080	  -4.5091	   0.0000	
 66.5197	   7.0686	   0.0000	
 63.2941	  -4.7724	   0.0000	
 56.6182	   4.0354	   0.0000	
 80.2001	  -9.2334	   0.0000	
 83.2502	  11.2243	   0.0000	
 34.4395	   0.8260	   0.0000	
 33.8467	   0.8023	   0.0000	
 -0.0000	   0.0000	   0.0000	
 -0.0000	  -0.0000	   0.0000	
 49.1951	  -0.0000	   0.0000	
 54.4088	   0.0000	   0.0000	
 50.6308	  -0.1662	   0.0000	
 53.8831	  -0.2383	   0.0000	
 51.6366	  -0.3029	   0.0000	
 53.7888	  -0.4430	   0.0000	
 52.2825	  -0.2142	   0.0000	
 54.1601	  -0.6749	   0.0000	
 53.0389	  -0.1470	   0.0000	
 54.1339	  -0.9640	   0.0000	
 52.5106	   0.1345	   0.0000	
 54.3747	  -1.2638	   0.0000	
 52.2363	   0.6073	   0.0000	
 53.9587	  -1.8616	   0.0000	
 53.4682	   0.9752	   0.0000	
 55.0623	  -2.3375	   0.0000	
 54.5154	   1.4912	   0.0000	
 56.1824	  -2.9672	   0.0000	
 54.4649	   2.2586	   0.0000	
 55.5561	  -3.9030	   0.0000	
 56.3789	   3.3303	   0.0000	
 57.6067	  -4.8129	   0.0000	
 57.2940	   4.5718	   0.0000	
 57.8421	  -5.9494	   0.0000	
 55.5092	   6.3614	   0.0000	
 55.4873	  -7.6030	   0.0000	
 58.8158	   8.6994	   0.0000	
 63.1444	  -9.9049	   0.0000	
 59.4289	  11.3723	   0.0000	
 59.5987	 -12.2173	   0.0000	
 77.4392	  15.5229	   0.0000	
 76.1223	 -14.8232	   0.0000	
 60.7888	  16.4384	   0.0000	
 61.3117	 -15.0715	   0.0000	
 35.6562	  14.5277	   0.0000	
 36.7995	 -12.9214	   0.0000	
 16.8632	  10.6911	   0.0000	
 16.5317	  -8.9466	   0.0000	
 51.5205	   0.0000	   0.0000	
 52.0860	   0.0000	   0.0000	
 50.6648	  -0.2373	   0.0000	
 51.9385	  -0.1864	   0.0000	
 50.6103	  -0.1517	   0.0000	
 52.1436	  -0.3670	   0.0000	
 50.4074	  -0.0758	   0.0000	
 51.9335	  -0.4684	   0.0000	
 50.7485	   0.1632	   0.0000	
 52.1840	  -0.6930	   0.0000	
 50.3841	   0.3125	   0.0000	
 51.7258	  -0.7681	   0.0000	
 50.7216	   0.4481	   0.0000	
 52.0424	  -0.9870	   0.0000	
 50.6901	   0.5615	   0.0000	
 51.8302	  -1.1435	   0.0000	
 49.9114	   0.6154	   0.0000	
 51.3113	  -1.3150	   0.0000	
 51.2344	   1.0703	   0.0000	
 52.4242	  -1.7943	   0.0000	
 49.7521	   1.1317	   0.0000	
 51.2634	  -1.9560	   0.0000	
 48.9593	   1.6021	   0.0000	
 50.2718	  -2.6246	   0.0000	
 50.8831	   2.2840	   0.0000	
 51.7349	  -3.2525	   0.0000	
 48.0704	   2.5808	   0.0000	
 50.2964	  -3.5824	   0.0000	
 47.6542	   3.8720	   0.0000	
 50.0905	  -5.6333	   0.0000	
 49.9001	   5.7306	   0.0000	
 51.7775	  -7.7741	   0.0000	
 56.2118	  11.9961	   0.0000	
 57.8812	 -13.7702	   0.0000	
 47.1971	  12.0004	   0.0000	
 50.1586	 -14.3951	   0.0000	
 29.6679	   8.2987	   0.0000	
 30.5567	 -10.5502	   0.0000	
 49.8263	  -0.0000	   0.0000	
 50.6099	   0.0000	   0.0000	
 50.2285	   0.2213	   0.0000	
 50.8450	  -0.1732	   0.0000	
 50.3691	   0.4014	   0.0000	
 50.9075	  -0.3126	   0.0000	
 50.4015	   0.5377	   0.0000	
 50.9244	  -0.4384	   0.0000	
 50.2686	   0.5384	   0.0000	
 51.0033	  -0.5887	   0.0000	
 50.2300	   0.5450	   0.0000	
 51.0117	  -0.7504	   0.0000	
 50.1362	   0.5383	   0.0000	
 51.0945	  -0.9362	   0.0000	
 50.0808	   0.5810	   0.0000	
 50.8071	  -1.0019	   0.0000	
 50.4557	   0.7726	   0.0000	
 51.1409	  -1.2755	   0.0000	
 50.0087	   0.7298	   0.0000	
 50.7713	  -1.3164	   0.0000	
 50.1630	   0.7878	   0.0000	
 50.8779	  -1.4887	   0.0000	
 50.0618	   0.9842	   0.0000	
 50.7401	  -1.7243	   0.0000	
 49.3571	   0.6882	   0.0000	
 50.1692	  -1.6318	   0.0000	
 49.8877	   0.9626	   0.0000	
 50.5914	  -1.8424	   0.0000	
 49.1263	   0.8137	   0.0000	
 49.8251	  -1.8708	   0.0000	
 47.4585	   0.0840	   0.0000	
 48.3407	  -1.4759	   0.0000	
 48.5706	   0.4057	   0.0000	
 48.7544	  -1.7032	   0.0000	
 45.9450	   0.3750	   0.0000	
 47.7338	  -2.7247	   0.0000	
 43.2937	   4.0361	   0.0000	
 43.6922	  -5.7643	   0.0000	
 49.9985	  -0.0000	   0.0000	
 50.3328	   0.0000	   0.0000	
 49.9800	  -0.0314	   0.0000	
 50.3570	  -0.0242	   0.0000	
 50.0057	  -0.0555	   0.0000	
 50.3815	  -0.0479	   0.0000	
 50.0548	  -0.0709	   0.0000	
 50.3969	  -0.0708	   0.0000	
 50.0525	  -0.1128	   0.0000	
 50.4519	  -0.1104	   0.0000	
 49.9665	  -0.1060	   0.0000	
 50.4074	  -0.1464	   0.0000	
 49.9947	   0.0088	   0.0000	
 50.4156	  -0.2371	   0.0000	
 49.9728	   0.1037	   0.0000	
 50.4191	  -0.3339	   0.0000	
 49.9994	   0.2164	   0.0000	
 50.3490	  -0.4210	   0.0000	
 49.7892	   0.1493	   0.0000	
 50.1985	  -0.4972	   0.0000	
 49.9285	   0.2917	   0.0000	
 50.3857	  -0.7486	   0.0000	
 49.5113	   0.2658	   0.0000	
 50.0316	  -0.8277	   0.0000	
 49.6896	   0.5066	   0.0000	
 50.1760	  -1.1198	   0.0000	
 49.2395	   0.4333	   0.0000	
 49.7302	  -1.1318	   0.0000	
 49.0011	   0.5921	   0.0000	
 49.5535	  -1.3730	   0.0000	
 49.1670	   0.7273	   0.0000	
 49.5310	  -1.5545	   0.0000	
 48.3792	   0.4184	   0.0000	
 48.8660	  -1.4291	   0.0000	
 49.6939	   0.3249	   0.0000	
 49.4095	  -1.3250	   0.0000	
 44.9901	  -1.6728	   0.0000	
 45.8840	   0.1285	   0.0000	
  0.0000	   0.0000	   0.0000	
  0.0000	   0.0000	   0.0000	
 -0.0000	   0.0000	   0.0000	
 -0.0000	  -0.0000	   0.0000	
 -0.0000	   0.0000	   0.0000	
 -0.0000	   0.0000	   0.0000	
  0.0000	  -0.0000	   0.0000	
  0.0000	  -0.0000	   0.0000	
  0.0000	  -0.0000	   0.0000	
  0.0000	  -0.0000	   0.0000	
  0.0000	  -0.0000	   0.0000	
 -0.0000	  -0.0000	   0.0000	
  0.0000	   0.0000	   0.0000	
  0.0000	  -0.0000	   0.0000	
  0.0000	  -0.0000	   0.0000	
  0.0000	   0.0000	   0.0000	
  0.0000	   0.0000	   0.0000	
  0.0000	   0.0000	   0.0000	
 20.3789	  10.5255	   0.0000	
 17.7791	  -8.5884	   0.0000	
 22.4724	   9.5814	   0.0000	
 22.3412	  -8.0513	   0.0000	
 19.3320	   8.4132	   0.0000	
 21.2811	  -6.8561	   0.0000	
 16.1743	   7.2216	   0.0000	
 17.9600	  -5.4120	   0.0000	
 13.4835	   5.9299	   0.0000	
 14.0577	  -3.9003	   0.0000	
 11.4704	   4.6394	   0.0000	
 12.0131	  -2.4525	   0.0000	
  9.9129	   3.4069	   0.0000	
 10.5270	  -1.1094	   0.0000	
  0.0000	   0.0000	   0.0000	
  0.0000	   0.0000	   0.0000	
 33.6024	   7.2683	   0.0000	
 29.7189	  -9.3929	   0.0000	
 35.0100	   6.2984	   0.0000	
 30.9695	  -8.2411	   0.0000	
 35.2416	   5.2670	   0.0000	
 33.9093	  -7.4109	   0.0000	
 35.6038	   4.1572	   0.0000	
 34.8368	  -6.5267	   0.0000	
 36.1093	   2.9569	   0.0000	
 35.6012	  -5.5543	   0.0000	
 36.3144	   1.6792	   0.0000	
 35.9113	  -4.4828	   0.0000	
 36.4780	   0.3260	   0.0000	
 36.2297	  -3.3572	   0.0000	
  0.0000	   0.0000	   0.0000	
  0.0000	   0.0000	   0.0000	
 48.3937	   1.4552	   0.0000	
 46.9537	  -3.5662	   0.0000	
 50.1044	   1.0891	   0.0000	
 48.8657	  -3.0249	   0.0000	
 49.6808	   0.7840	   0.0000	
 49.0861	  -2.6109	   0.0000	
 49.4484	   0.4310	   0.0000	
 49.0943	  -2.1376	   0.0000	
 49.2519	   0.1417	   0.0000	
 49.0281	  -1.8289	   0.0000	
 49.0602	  -0.1345	   0.0000	
 48.9473	  -1.4386	   0.0000	
 48.8924	  -0.4223	   0.0000	
 48.9211	  -1.1951	   0.0000	
  0.0000	   0.0000	   0.0000	
  0.0000	   0.0000	   0.0000	
 46.7181	  -1.5485	   0.0000	
 46.3271	   0.2965	   0.0000	
 48.4731	  -1.4248	   0.0000	
 49.0334	   0.2345	   0.0000	
 48.3884	  -1.2583	   0.0000	
 49.1553	   0.1314	   0.0000	
 48.2680	  -1.1054	   0.0000	
 48.7557	   0.0249	   0.0000	
 48.4842	  -0.9761	   0.0000	
 48.7440	  -0.1118	   0.0000	
 48.2694	  -0.8114	   0.0000	
 48.4892	  -0.2336	   0.0000	
 48.5382	  -0.7012	   0.0000	
 48.6151	  -0.3348	   0.0000	
 -0.0000	  -0.0000	   0.0000	
  0.0000	  -0.0000	   0.0000	
 -0.0000	   0.0000	   0.0000	
 10.3100	   2.2094	   0.0000	
  9.7718	   1.2854	   0.0000	
  9.3880	   0.3838	   0.0000	
 36.9996	  -0.8702	   0.0000	
 36.7144	  -1.5074	   0.0000	
 36.3244	  -2.2142	   0.0000	
 48.6130	  -0.7417	   0.0000	
 48.9911	  -0.7496	   0.0000	
 49.2211	  -0.8630	   0.0000	
 48.2775	  -0.6411	   0.0000	
 48.1412	  -0.5644	   0.0000	
 48.5203	  -0.4151	   0.0000	
 48.4503	   0.3835	   0.0000	
 48.5697	  -1.3009	   0.0000	
 47.4572	   0.1936	   0.0000	
 47.8231	  -1.1533	   0.0000	
 46.7411	  -0.0995	   0.0000	
 47.2460	  -0.9289	   0.0000	
 48.2889	  -0.6851	   0.0000	
 48.4978	  -0.4388	   0.0000	
 48.6400	  -0.6586	   0.0000	
 49.1215	  -0.5366	   0.0000	
 48.4984	  -0.6580	   0.0000	
 48.7000	  -0.6546	   0.0000	
 48.5360	  -0.6738	   0.0000	
 48.6910	  -0.6907	   0.0000	
 48.7000	  -0.6867	   0.0000	
 48.6105	  -0.7084	   0.0000	
 49.0148	   0.3998	   0.0000	
 49.1817	  -1.4483	   0.0000	
 49.3853	   0.4876	   0.0000	