# vtk DataFile Version 3.0 
Results 
ASCII 
DATASET UNSTRUCTURED_GRID 
POINTS 	     299 float 
  0.0000	   1.5000	  0.0000	 
  0.0000	   3.0000	  0.0000	 
  0.0000	   4.5000	  0.0000	 
  0.0000	   6.0000	  0.0000	 
  0.0000	   7.5000	  0.0000	 
  0.0000	   9.0000	  0.0000	 
  0.0000	  10.5000	  0.0000	 
  0.5625	   2.0156	  0.0000	 
  0.5625	   3.3438	  0.0000	 
  0.5625	   4.6719	  0.0000	 
  0.5625	   6.0000	  0.0000	 
  0.5625	   7.3281	  0.0000	 
  0.5625	   8.6562	  0.0000	 
  0.5625	   9.9844	  0.0000	 
  1.1250	   2.5312	  0.0000	 
  1.1250	   3.6875	  0.0000	 
  1.1250	   4.8438	  0.0000	 
  1.1250	   6.0000	  0.0000	 
  1.1250	   7.1562	  0.0000	 
  1.1250	   8.3125	  0.0000	 
  1.1250	   9.4688	  0.0000	 
  1.6875	   3.0469	  0.0000	 
  1.6875	   4.0312	  0.0000	 
  1.6875	   5.0156	  0.0000	 
  1.6875	   6.0000	  0.0000	 
  1.6875	   6.9844	  0.0000	 
  1.6875	   7.9688	  0.0000	 
  1.6875	   8.9531	  0.0000	 
  2.2500	   3.5625	  0.0000	 
  2.2500	   4.3750	  0.0000	 
  2.2500	   5.1875	  0.0000	 
  2.2500	   6.0000	  0.0000	 
  2.2500	   6.8125	  0.0000	 
  2.2500	   7.6250	  0.0000	 
  2.2500	   8.4375	  0.0000	 
  2.8125	   4.0781	  0.0000	 
  2.8125	   4.7188	  0.0000	 
  2.8125	   5.3594	  0.0000	 
  2.8125	   6.0000	  0.0000	 
  2.8125	   6.6406	  0.0000	 
  2.8125	   7.2812	  0.0000	 
  2.8125	   7.9219	  0.0000	 
  3.3750	   4.5938	  0.0000	 
  3.3750	   5.0625	  0.0000	 
  3.3750	   5.5312	  0.0000	 
  3.3750	   6.0000	  0.0000	 
  3.3750	   6.4688	  0.0000	 
  3.3750	   6.9375	  0.0000	 
  3.3750	   7.4062	  0.0000	 
  3.9375	   5.1094	  0.0000	 
  3.9375	   5.4062	  0.0000	 
  3.9375	   5.7031	  0.0000	 
  3.9375	   6.0000	  0.0000	 
  3.9375	   6.2969	  0.0000	 
  3.9375	   6.5938	  0.0000	 
  3.9375	   6.8906	  0.0000	 
  4.5000	   5.6250	  0.0000	 
  4.5000	   5.7500	  0.0000	 
  4.5000	   5.8750	  0.0000	 
  4.5000	   6.0000	  0.0000	 
  4.5000	   6.1250	  0.0000	 
  4.5000	   6.2500	  0.0000	 
  4.5000	   6.3750	  0.0000	 
  0.0000	   0.0000	  0.0000	 
  0.0000	  12.0000	  0.0000	 
  0.5625	   0.6875	  0.0000	 
  0.5625	  11.3125	  0.0000	 
  1.1250	   1.3750	  0.0000	 
  1.1250	  10.6250	  0.0000	 
  1.6875	   2.0625	  0.0000	 
  1.6875	   9.9375	  0.0000	 
  2.2500	   2.7500	  0.0000	 
  2.2500	   9.2500	  0.0000	 
  2.8125	   3.4375	  0.0000	 
  2.8125	   8.5625	  0.0000	 
  3.3750	   4.1250	  0.0000	 
  3.3750	   7.8750	  0.0000	 
  3.9375	   4.8125	  0.0000	 
  3.9375	   7.1875	  0.0000	 
  4.5000	   5.5000	  0.0000	 
  4.5000	   6.5000	  0.0000	 
  2.8000	   0.0000	  0.0000	 
  2.8000	  12.0000	  0.0000	 
  3.1375	   0.6875	  0.0000	 
  3.1375	  11.3125	  0.0000	 
  3.4750	   1.3750	  0.0000	 
  3.4750	  10.6250	  0.0000	 
  3.8125	   2.0625	  0.0000	 
  3.8125	   9.9375	  0.0000	 
  4.1500	   2.7500	  0.0000	 
  4.1500	   9.2500	  0.0000	 
  4.4875	   3.4375	  0.0000	 
  4.4875	   8.5625	  0.0000	 
  4.8250	   4.1250	  0.0000	 
  4.8250	   7.8750	  0.0000	 
  5.1625	   4.8125	  0.0000	 
  5.1625	   7.1875	  0.0000	 
  5.5000	   5.5000	  0.0000	 
  5.5000	   6.5000	  0.0000	 
  5.6000	   0.0000	  0.0000	 
  5.6000	  12.0000	  0.0000	 
  5.7125	   0.6875	  0.0000	 
  5.7125	  11.3125	  0.0000	 
  5.8250	   1.3750	  0.0000	 
  5.8250	  10.6250	  0.0000	 
  5.9375	   2.0625	  0.0000	 
  5.9375	   9.9375	  0.0000	 
  6.0500	   2.7500	  0.0000	 
  6.0500	   9.2500	  0.0000	 
  6.1625	   3.4375	  0.0000	 
  6.1625	   8.5625	  0.0000	 
  6.2750	   4.1250	  0.0000	 
  6.2750	   7.8750	  0.0000	 
  6.3875	   4.8125	  0.0000	 
  6.3875	   7.1875	  0.0000	 
  6.5000	   5.5000	  0.0000	 
  6.5000	   6.5000	  0.0000	 
  8.4000	   0.0000	  0.0000	 
  8.4000	  12.0000	  0.0000	 
  8.2875	   0.6875	  0.0000	 
  8.2875	  11.3125	  0.0000	 
  8.1750	   1.3750	  0.0000	 
  8.1750	  10.6250	  0.0000	 
  8.0625	   2.0625	  0.0000	 
  8.0625	   9.9375	  0.0000	 
  7.9500	   2.7500	  0.0000	 
  7.9500	   9.2500	  0.0000	 
  7.8375	   3.4375	  0.0000	 
  7.8375	   8.5625	  0.0000	 
  7.7250	   4.1250	  0.0000	 
  7.7250	   7.8750	  0.0000	 
  7.6125	   4.8125	  0.0000	 
  7.6125	   7.1875	  0.0000	 
  7.5000	   5.5000	  0.0000	 
  7.5000	   6.5000	  0.0000	 
 11.2000	   0.0000	  0.0000	 
 11.2000	  12.0000	  0.0000	 
 10.8625	   0.6875	  0.0000	 
 10.8625	  11.3125	  0.0000	 
 10.5250	   1.3750	  0.0000	 
 10.5250	  10.6250	  0.0000	 
 10.1875	   2.0625	  0.0000	 
 10.1875	   9.9375	  0.0000	 
  9.8500	   2.7500	  0.0000	 
  9.8500	   9.2500	  0.0000	 
  9.5125	   3.4375	  0.0000	 
  9.5125	   8.5625	  0.0000	 
  9.1750	   4.1250	  0.0000	 
  9.1750	   7.8750	  0.0000	 
  8.8375	   4.8125	  0.0000	 
  8.8375	   7.1875	  0.0000	 
  8.5000	   5.5000	  0.0000	 
  8.5000	   6.5000	  0.0000	 
 14.0000	   0.0000	  0.0000	 
 14.0000	  12.0000	  0.0000	 
 13.4375	   0.6875	  0.0000	 
 13.4375	  11.3125	  0.0000	 
 12.8750	   1.3750	  0.0000	 
 12.8750	  10.6250	  0.0000	 
 12.3125	   2.0625	  0.0000	 
 12.3125	   9.9375	  0.0000	 
 11.7500	   2.7500	  0.0000	 
 11.7500	   9.2500	  0.0000	 
 11.1875	   3.4375	  0.0000	 
 11.1875	   8.5625	  0.0000	 
 10.6250	   4.1250	  0.0000	 
 10.6250	   7.8750	  0.0000	 
 10.0625	   4.8125	  0.0000	 
 10.0625	   7.1875	  0.0000	 
  9.5000	   5.5000	  0.0000	 
  9.5000	   6.5000	  0.0000	 
  5.5000	   5.5000	  0.0000	 
  5.5000	   6.5000	  0.0000	 
  5.5000	   5.6567	  0.0000	 
  5.5000	   6.3433	  0.0000	 
  5.5000	   5.8133	  0.0000	 
  5.5000	   6.1867	  0.0000	 
  6.5000	   5.5000	  0.0000	 
  6.5000	   6.5000	  0.0000	 
  6.5000	   5.6567	  0.0000	 
  6.5000	   6.3433	  0.0000	 
  6.5000	   5.8133	  0.0000	 
  6.5000	   6.1867	  0.0000	 
  7.5000	   5.5000	  0.0000	 
  7.5000	   6.5000	  0.0000	 
  7.5000	   5.6567	  0.0000	 
  7.5000	   6.3433	  0.0000	 
  7.5000	   5.8133	  0.0000	 
  7.5000	   6.1867	  0.0000	 
  8.5000	   5.5000	  0.0000	 
  8.5000	   6.5000	  0.0000	 
  8.5000	   5.6567	  0.0000	 
  8.5000	   6.3433	  0.0000	 
  8.5000	   5.8133	  0.0000	 
  8.5000	   6.1867	  0.0000	 
  9.5000	   5.5000	  0.0000	 
  9.5000	   6.5000	  0.0000	 
  9.5000	   5.6567	  0.0000	 
  9.5000	   6.3433	  0.0000	 
  9.5000	   5.8133	  0.0000	 
  9.5000	   6.1867	  0.0000	 
  5.5000	   5.9700	  0.0000	 
  5.5000	   6.0000	  0.0000	 
  5.5000	   6.0300	  0.0000	 
  6.5000	   5.9700	  0.0000	 
  6.5000	   6.0000	  0.0000	 
  6.5000	   6.0300	  0.0000	 
  7.5000	   5.9700	  0.0000	 
  7.5000	   6.0000	  0.0000	 
  7.5000	   6.0300	  0.0000	 
  8.5000	   5.9700	  0.0000	 
  8.5000	   6.0000	  0.0000	 
  8.5000	   6.0300	  0.0000	 
  9.5000	   5.9700	  0.0000	 
  9.5000	   6.0000	  0.0000	 
  9.5000	   6.0300	  0.0000	 
 10.0625	   5.1371	  0.0000	 
 10.0625	   6.8629	  0.0000	 
 10.0625	   5.4617	  0.0000	 
 10.0625	   6.5383	  0.0000	 
 10.0625	   5.7862	  0.0000	 
 10.0625	   6.2138	  0.0000	 
 10.6250	   4.6175	  0.0000	 
 10.6250	   7.3825	  0.0000	 
 10.6250	   5.1100	  0.0000	 
 10.6250	   6.8900	  0.0000	 
 10.6250	   5.6025	  0.0000	 
 10.6250	   6.3975	  0.0000	 
 11.1875	   4.0979	  0.0000	 
 11.1875	   7.9021	  0.0000	 
 11.1875	   4.7583	  0.0000	 
 11.1875	   7.2417	  0.0000	 
 11.1875	   5.4188	  0.0000	 
 11.1875	   6.5812	  0.0000	 
 11.7500	   3.5783	  0.0000	 
 11.7500	   8.4217	  0.0000	 
 11.7500	   4.4067	  0.0000	 
 11.7500	   7.5933	  0.0000	 
 11.7500	   5.2350	  0.0000	 
 11.7500	   6.7650	  0.0000	 
 12.3125	   3.0587	  0.0000	 
 12.3125	   8.9413	  0.0000	 
 12.3125	   4.0550	  0.0000	 
 12.3125	   7.9450	  0.0000	 
 12.3125	   5.0512	  0.0000	 
 12.3125	   6.9488	  0.0000	 
 12.8750	   2.5392	  0.0000	 
 12.8750	   9.4608	  0.0000	 
 12.8750	   3.7033	  0.0000	 
 12.8750	   8.2967	  0.0000	 
 12.8750	   4.8675	  0.0000	 
 12.8750	   7.1325	  0.0000	 
 13.4375	   2.0196	  0.0000	 
 13.4375	   9.9804	  0.0000	 
 13.4375	   3.3517	  0.0000	 
 13.4375	   8.6483	  0.0000	 
 13.4375	   4.6837	  0.0000	 
 13.4375	   7.3163	  0.0000	 
 14.0000	   1.5000	  0.0000	 
 14.0000	  10.5000	  0.0000	 
 14.0000	   3.0000	  0.0000	 
 14.0000	   9.0000	  0.0000	 
 14.0000	   4.5000	  0.0000	 
 14.0000	   7.5000	  0.0000	 
 10.0625	   6.0000	  0.0000	 
 10.6250	   6.0000	  0.0000	 
 11.1875	   6.0000	  0.0000	 
 11.7500	   6.0000	  0.0000	 
 12.3125	   6.0000	  0.0000	 
 12.8750	   6.0000	  0.0000	 
 13.4375	   6.0000	  0.0000	 
 14.0000	   6.0000	  0.0000	 
 15.8333	   0.0000	  0.0000	 
 15.8333	   1.5000	  0.0000	 
 15.8333	   3.0000	  0.0000	 
 15.8333	   4.5000	  0.0000	 
 15.8333	   6.0000	  0.0000	 
 15.8333	   7.5000	  0.0000	 
 15.8333	   9.0000	  0.0000	 
 15.8333	  10.5000	  0.0000	 
 15.8333	  12.0000	  0.0000	 
 17.6667	   0.0000	  0.0000	 
 17.6667	   1.5000	  0.0000	 
 17.6667	   3.0000	  0.0000	 
 17.6667	   4.5000	  0.0000	 
 17.6667	   6.0000	  0.0000	 
 17.6667	   7.5000	  0.0000	 
 17.6667	   9.0000	  0.0000	 
 17.6667	  10.5000	  0.0000	 
 17.6667	  12.0000	  0.0000	 
 19.5000	   0.0000	  0.0000	 
 19.5000	   1.5000	  0.0000	 
 19.5000	   3.0000	  0.0000	 
 19.5000	   4.5000	  0.0000	 
 19.5000	   6.0000	  0.0000	 
 19.5000	   7.5000	  0.0000	 
 19.5000	   9.0000	  0.0000	 
 19.5000	  10.5000	  0.0000	 
 19.5000	  12.0000	  0.0000	 

CELLS 	     528 	    2112 
       3	       30	      37	       31	
       3	      275	     271	      262	
       3	       34	      41	       74	
       3	        6	      13	       68	
       3	      194	     192	      186	
       3	      182	     188	      180	
       3	        5	      13	        6	
       3	       23	      22	       29	
       3	       91	      93	       75	
       3	       20	      13	        5	
       3	       67	      65	       81	
       3	       70	      84	       68	
       3	        0	      63	       65	
       3	       26	      25	       33	
       3	       20	       5	       12	
       3	       55	      47	       54	
       3	       20	      70	       13	
       3	       73	      28	       71	
       3	      102	     104	      122	
       3	      127	     129	      109	
       3	      140	     160	      138	
       3	      241	     235	      243	
       3	      277	     261	      263	
[...]
POINT_DATA 	     299 
VECTORS U float 
 50.0000	   0.0000	   0.0000	
 50.0000	   0.0000	   0.0000	
 50.0000	  -0.0000	   0.0000	
 50.0000	   0.0000	   0.0000	
 50.0000	  -0.0000	   0.0000	
 50.0000	   0.0000	   0.0000	
 50.0000	   0.0000	   0.0000	
 61.7485	  29.6608	   0.0000	
 45.4784	   8.1871	   0.0000	
 44.3482	  49.7964	   0.0000	
 45.9584	  64.3596	   0.0000	
 56.4581	  66.5918	   0.0000	
 47.5255	  43.6893	   0.0000	
 53.0464	  54.9092	   0.0000	
 67.8347	  50.5616	   0.0000	
 23.1425	  60.1709	   0.0000	
 40.2884	  72.8235	   0.0000	
 41.0548	  79.2529	   0.0000	
 51.7770	  85.9346	   0.0000	
 61.5257	  95.9618	   0.0000	
 41.6180	  91.4623	   0.0000	
 62.4059	  79.3064	   0.0000	
 16.4589	  65.8777	   0.0000	
 40.4075	  70.1191	   0.0000	
 41.2291	  79.6308	   0.0000	
 48.2685	  73.3796	   0.0000	
 51.4001	  87.6175	   0.0000	
 46.2291	 105.1275	   0.0000	
 39.0947	  83.6687	   0.0000	
 18.7238	  63.5937	   0.0000	
 38.6123	  77.1854	   0.0000	
 34.5625	  84.1928	   0.0000	
 45.3235	  89.6004	   0.0000	
 47.5833	  87.1551	   0.0000	
 41.0070	  84.9062	   0.0000	
 39.6828	  76.9789	   0.0000	
 20.4868	  73.5126	   0.0000	
 32.2443	  70.9546	   0.0000	
 42.2618	  69.1579	   0.0000	
 31.6701	  70.9736	   0.0000	
 53.7899	  97.6328	   0.0000	
 48.7772	  93.7968	   0.0000	
 25.7048	  69.9821	   0.0000	
 23.6724	  73.4408	   0.0000	
 37.8984	  78.9980	   0.0000	
 13.7162	 101.8877	   0.0000	
 20.8268	 126.7001	   0.0000	
 14.5426	 141.9683	   0.0000	
 64.7933	 116.6599	   0.0000	
  9.7675	  56.9792	   0.0000	
 27.3173	  72.6038	   0.0000	
 -2.4335	  82.9225	   0.0000	
  6.7202	  85.2233	   0.0000	
 -4.3541	  88.1874	   0.0000	
  4.3044	  91.4182	   0.0000	
 40.0529	  82.1894	   0.0000	
  0.0000	  -0.0000	   0.0000	
 -0.0000	  -0.0000	   0.0000	
 -0.0000	  -0.0000	   0.0000	
 -0.0000	   0.0000	   0.0000	
  0.0000	   0.0000	   0.0000	
 -0.0000	   0.0000	   0.0000	
  0.0000	  -0.0000	   0.0000	
 50.0000	  50.0000	   0.0000	
 50.0000	   0.0000	   0.0000	
 83.3424	  43.0442	   0.0000	
 53.2828	  43.7249	   0.0000	
 78.9955	  56.7469	   0.0000	
 51.8680	  86.4011	   0.0000	
 51.2994	  72.0647	   0.0000	
 65.4451	  97.2255	   0.0000	
 62.7154	  62.4390	   0.0000	
 55.1309	  80.7852	   0.0000	
 32.7368	  74.0895	   0.0000	
 49.5842	  73.8204	   0.0000	
 33.9748	  61.1462	   0.0000	
 74.9580	  81.8820	   0.0000	
  8.5451	  52.9908	   0.0000	
 96.8990	  63.7081	   0.0000	
 -0.0000	  -0.0000	   0.0000	
 -0.0000	   0.0000	   0.0000	
 47.2509	  50.0000	   0.0000	
 91.6325	 159.8298	   0.0000	
 59.5334	  46.7015	   0.0000	
 14.4760	 119.3672	   0.0000	
 36.5465	  57.5146	   0.0000	
 21.1234	  99.8962	   0.0000	
 54.3198	  52.7350	   0.0000	
 32.0628	  93.9127	   0.0000	
 38.3198	  48.4142	   0.0000	
 30.3772	  83.2304	   0.0000	
 47.0893	  39.8506	   0.0000	
 35.9738	  65.1693	   0.0000	
 20.9739	  36.4340	   0.0000	
 72.9464	  51.4119	   0.0000	
 64.2798	   1.6826	   0.0000	
 26.3334	   3.6798	   0.0000	
 -0.0000	   0.0000	   0.0000	
  0.0000	  -0.0000	   0.0000	
 77.0480	  50.0000	   0.0000	
-33.3063	  63.5066	   0.0000	
 43.7043	  52.2748	   0.0000	
 12.6720	  72.9944	   0.0000	
 44.5930	  51.3513	   0.0000	
  7.0166	  69.0168	   0.0000	
 56.8004	  55.4019	   0.0000	
 16.6430	  63.3550	   0.0000	
 52.1721	  56.5370	   0.0000	
  7.7669	  58.0025	   0.0000	
 57.0725	  59.7055	   0.0000	
 10.6236	  55.2491	   0.0000	
 69.5711	  56.3342	   0.0000	
  4.9136	  37.0626	   0.0000	
 87.0261	  68.2535	   0.0000	
  4.3322	  40.5182	   0.0000	
 25.6370	  63.6916	   0.0000	
  9.6267	  51.5774	   0.0000	
 47.2015	  50.0000	   0.0000	
  6.2031	  57.2823	   0.0000	
 41.9063	  51.0156	   0.0000	
  8.0617	  56.0646	   0.0000	
 47.2345	  51.6049	   0.0000	
  5.4330	  55.9687	   0.0000	
 40.8830	  52.4283	   0.0000	
  7.6396	  57.8852	   0.0000	
 46.0837	  54.3713	   0.0000	
 12.5635	  60.3357	   0.0000	
 39.1459	  55.8933	   0.0000	
 18.5059	  61.1718	   0.0000	
 46.1804	  63.9452	   0.0000	
  0.6305	  68.4192	   0.0000	
 50.4407	  77.9162	   0.0000	
 17.8382	  73.7803	   0.0000	
 29.6357	  95.8554	   0.0000	
 27.2298	  76.9296	   0.0000	
 43.9660	  50.0000	   0.0000	
  0.4272	  46.1672	   0.0000	
 43.9775	  51.5022	   0.0000	
  4.5725	  46.5619	   0.0000	
 45.2020	  51.7723	   0.0000	
  4.5870	  48.2996	   0.0000	
 41.7033	  49.9115	   0.0000	
  9.4308	  49.2997	   0.0000	
 41.1602	  50.2094	   0.0000	
 12.4682	  50.4671	   0.0000	
 40.9767	  53.1957	   0.0000	
 15.9443	  50.3905	   0.0000	
 38.5664	  52.3751	   0.0000	
 11.5804	  51.7310	   0.0000	
 46.5268	  58.0793	   0.0000	
 18.6321	  60.2672	   0.0000	
 17.9056	  59.4482	   0.0000	
 29.1552	  60.1087	   0.0000	
 60.9043	  50.0000	   0.0000	
  0.1472	  29.6813	   0.0000	
 52.5302	  45.7926	   0.0000	
  3.4303	  33.2130	   0.0000	
 44.2376	  41.3803	   0.0000	
  6.8811	  36.2620	   0.0000	
 45.0322	  45.2508	   0.0000	
  9.0234	  39.4477	   0.0000	
 40.1314	  45.9662	   0.0000	
 14.2883	  43.0154	   0.0000	
 38.9954	  49.7222	   0.0000	
 16.7536	  45.9968	   0.0000	
 36.3620	  51.6620	   0.0000	
 16.5733	  50.8097	   0.0000	
 35.6167	  53.5267	   0.0000	
 27.2228	  53.0402	   0.0000	
 17.1242	  59.3333	   0.0000	
 28.4321	  60.1707	   0.0000	
  0.0000	   0.0000	   0.0000	
  0.0000	   0.0000	   0.0000	
  0.0000	  -0.0000	   0.0000	
  0.0000	   0.0000	   0.0000	
  0.0000	  -0.0000	   0.0000	
 -0.0000	  -0.0000	   0.0000	
  0.0000	   0.0000	   0.0000	
  0.0000	   0.0000	   0.0000	
  2.3672	  60.2182	   0.0000	
-14.6637	  57.0345	   0.0000	
 -8.7664	  60.3825	   0.0000	
 24.8415	  54.8186	   0.0000	
  0.0000	   0.0000	   0.0000	
  0.0000	   0.0000	   0.0000	
 22.0137	  96.8735	   0.0000	
 21.7934	  81.1657	   0.0000	
 21.2952	  92.1673	   0.0000	
 24.0279	  83.7252	   0.0000	
  0.0000	   0.0000	   0.0000	
  0.0000	   0.0000	   0.0000	
 24.0826	  59.2556	   0.0000	
 25.0938	  60.3943	   0.0000	
 38.2849	  60.6628	   0.0000	
 34.9990	  58.8101	   0.0000	
  0.0000	   0.0000	   0.0000	
  0.0000	   0.0000	   0.0000	
 28.6479	  58.1883	   0.0000	
 21.0982	  61.1170	   0.0000	
 33.7194	  56.6941	   0.0000	
 26.0581	  60.9304	   0.0000	
 -0.0000	   0.0000	   0.0000	
 -0.0000	  -0.0000	   0.0000	
  0.0000	  -0.0000	   0.0000	
 -0.5794	  58.5392	   0.0000	
 -8.7501	  59.5237	   0.0000	
  1.0639	  58.6508	   0.0000	
 18.0979	  86.8426	   0.0000	
 30.2555	  86.1705	   0.0000	
  3.4942	  88.4580	   0.0000	
 25.1128	  61.0489	   0.0000	
 42.6926	  59.0232	   0.0000	
 37.4275	  58.7219	   0.0000	
 22.6835	  59.2745	   0.0000	
 28.5371	  59.3650	   0.0000	
 23.9950	  59.9997	   0.0000	
 30.0184	  54.8895	   0.0000	
 27.5704	  50.6786	   0.0000	
 24.9629	  50.2990	   0.0000	
 24.9663	  48.6144	   0.0000	
 29.3278	  50.8370	   0.0000	
 28.3338	  48.8438	   0.0000	
 36.4449	  51.0177	   0.0000	
 22.5767	  50.6321	   0.0000	
 31.5142	  52.6101	   0.0000	
 25.0443	  49.4653	   0.0000	
 27.7953	  49.6278	   0.0000	
 25.2649	  50.4312	   0.0000	
 37.0034	  47.7466	   0.0000	
 17.5070	  47.3579	   0.0000	
 33.1186	  49.1250	   0.0000	
 23.8672	  46.9405	   0.0000	
 31.3312	  49.3000	   0.0000	
 25.7246	  47.2635	   0.0000	
 38.9651	  46.3156	   0.0000	
 17.0810	  42.7613	   0.0000	
 34.9784	  46.3379	   0.0000	
 21.0649	  44.9503	   0.0000	
 32.0879	  46.4316	   0.0000	
 25.0127	  44.8166	   0.0000	
 39.3182	  46.1625	   0.0000	
 15.8799	  39.8946	   0.0000	
 36.7987	  44.1947	   0.0000	
 20.0409	  41.0368	   0.0000	
 32.9445	  43.9436	   0.0000	
 24.3327	  42.2948	   0.0000	
 41.7023	  44.7513	   0.0000	
 12.6267	  37.9826	   0.0000	
 38.3243	  41.8874	   0.0000	
 19.3917	  37.1997	   0.0000	
 34.2377	  43.0773	   0.0000	
 24.0437	  39.2478	   0.0000	
 42.6611	  41.6412	   0.0000	
 10.3720	  34.5484	   0.0000	
 40.6881	  41.1700	   0.0000	
 17.6657	  35.6423	   0.0000	
 35.0981	  40.3482	   0.0000	
 24.4787	  36.0376	   0.0000	
 45.8924	  46.2441	   0.0000	
  8.0705	  30.2725	   0.0000	
 41.6121	  38.4400	   0.0000	
 15.9594	  31.1918	   0.0000	
 36.2838	  37.6193	   0.0000	
 23.3222	  32.9238	   0.0000	
 30.1038	  50.6091	   0.0000	
 28.3024	  50.1153	   0.0000	
 28.6431	  47.2536	   0.0000	
 29.4642	  45.2558	   0.0000	
 30.0660	  42.6589	   0.0000	
 30.6426	  40.7100	   0.0000	
 31.6764	  38.1269	   0.0000	
 32.2213	  33.2021	   0.0000	
 65.7944	  50.0000	   0.0000	
 56.8109	  40.4740	   0.0000	
 45.9783	  34.4881	   0.0000	
 43.3447	  26.2833	   0.0000	
 33.3599	  24.9500	   0.0000	
 25.7609	  23.3368	   0.0000	
 17.1988	  22.7343	   0.0000	
  8.8358	  22.5564	   0.0000	
  0.3679	  22.5250	   0.0000	
 77.6858	  50.0000	   0.0000	
 69.0459	  37.5088	   0.0000	
 60.6783	  19.9356	   0.0000	
 46.0383	  14.2247	   0.0000	
 35.1787	  11.2217	   0.0000	
 26.2211	  10.0224	   0.0000	
 16.9052	   9.7226	   0.0000	
  8.9545	   9.5658	   0.0000	
 -0.3028	   9.7271	   0.0000	
 95.3992	  50.0000	   0.0000	
 95.3940	  26.4188	   0.0000	
 71.9019	  14.8257	   0.0000	
 52.4035	   8.5343	   0.0000	
 38.4637	   4.7188	   0.0000	
 27.8936	   2.7019	   0.0000	
 17.6532	   1.6410	   0.0000	
  9.0835	   1.3435	   0.0000	
  0.6442	   0.5767	   0.0000	
