# vtk DataFile Version 3.0 
Results 
ASCII 
DATASET UNSTRUCTURED_GRID 
POINTS 	    1451 float 
  0.0000	   0.6000	  0.0000	 
  0.0000	   1.2000	  0.0000	 
  0.0000	   1.8000	  0.0000	 
  0.0000	   2.4000	  0.0000	 
  0.0000	   3.0000	  0.0000	 
  0.0000	   3.6000	  0.0000	 
  0.0000	   4.2000	  0.0000	 
  0.0000	   4.8000	  0.0000	 
  0.0000	   5.4000	  0.0000	 
  0.0000	   6.0000	  0.0000	 
  0.0000	   6.6000	  0.0000	 
  0.0000	   7.2000	  0.0000	 
  0.0000	   7.8000	  0.0000	 
  0.0000	   8.4000	  0.0000	 
  0.0000	   9.0000	  0.0000	 
  0.0000	   9.6000	  0.0000	 
  0.0000	  10.2000	  0.0000	 
  0.0000	  10.8000	  0.0000	 
  0.0000	  11.4000	  0.0000	 
  0.2250	   0.8475	  0.0000	 
  0.2250	   1.4200	  0.0000	 
  0.2250	   1.9925	  0.0000	 
  0.2250	   2.5650	  0.0000	 
  0.2250	   3.1375	  0.0000	 
  0.2250	   3.7100	  0.0000	 
  0.2250	   4.2825	  0.0000	 
  0.2250	   4.8550	  0.0000	 
  0.2250	   5.4275	  0.0000	 
  0.2250	   6.0000	  0.0000	 
  0.2250	   6.5725	  0.0000	 
  0.2250	   7.1450	  0.0000	 
  0.2250	   7.7175	  0.0000	 
  0.2250	   8.2900	  0.0000	 
  0.2250	   8.8625	  0.0000	 
  0.2250	   9.4350	  0.0000	 
  0.2250	  10.0075	  0.0000	 
  0.2250	  10.5800	  0.0000	 
  0.2250	  11.1525	  0.0000	 
  0.4500	   1.0950	  0.0000	 
  0.4500	   1.6400	  0.0000	 
  0.4500	   2.1850	  0.0000	 
  0.4500	   2.7300	  0.0000	 
  0.4500	   3.2750	  0.0000	 
  0.4500	   3.8200	  0.0000	 
  0.4500	   4.3650	  0.0000	 
  0.4500	   4.9100	  0.0000	 
  0.4500	   5.4550	  0.0000	 
  0.4500	   6.0000	  0.0000	 
  0.4500	   6.5450	  0.0000	 
  0.4500	   7.0900	  0.0000	 
  0.4500	   7.6350	  0.0000	 
  0.4500	   8.1800	  0.0000	 
  0.4500	   8.7250	  0.0000	 
  0.4500	   9.2700	  0.0000	 
  0.4500	   9.8150	  0.0000	 
  0.4500	  10.3600	  0.0000	 
  0.4500	  10.9050	  0.0000	 
  0.6750	   1.3425	  0.0000	 
  0.6750	   1.8600	  0.0000	 
  0.6750	   2.3775	  0.0000	 
  0.6750	   2.8950	  0.0000	 
  0.6750	   3.4125	  0.0000	 
  0.6750	   3.9300	  0.0000	 
  0.6750	   4.4475	  0.0000	 
  0.6750	   4.9650	  0.0000	 
  0.6750	   5.4825	  0.0000	 
  0.6750	   6.0000	  0.0000	 
  0.6750	   6.5175	  0.0000	 
  0.6750	   7.0350	  0.0000	 
  0.6750	   7.5525	  0.0000	 
  0.6750	   8.0700	  0.0000	 
  0.6750	   8.5875	  0.0000	 
  0.6750	   9.1050	  0.0000	 
  0.6750	   9.6225	  0.0000	 
  0.6750	  10.1400	  0.0000	 
  0.6750	  10.6575	  0.0000	 
  0.9000	   1.5900	  0.0000	 
  0.9000	   2.0800	  0.0000	 
  0.9000	   2.5700	  0.0000	 
  0.9000	   3.0600	  0.0000	 
  0.9000	   3.5500	  0.0000	 
  0.9000	   4.0400	  0.0000	 
  0.9000	   4.5300	  0.0000	 
  0.9000	   5.0200	  0.0000	 
  0.9000	   5.5100	  0.0000	 
  0.9000	   6.0000	  0.0000	 
  0.9000	   6.4900	  0.0000	 
  0.9000	   6.9800	  0.0000	 
  0.9000	   7.4700	  0.0000	 
  0.9000	   7.9600	  0.0000	 
  0.9000	   8.4500	  0.0000	 
  0.9000	   8.9400	  0.0000	 
  0.9000	   9.4300	  0.0000	 
  0.9000	   9.9200	  0.0000	 
  0.9000	  10.4100	  0.0000	 
  1.1250	   1.8375	  0.0000	 
  1.1250	   2.3000	  0.0000	 
  1.1250	   2.7625	  0.0000	 
  1.1250	   3.2250	  0.0000	 
  1.1250	   3.6875	  0.0000	 
  1.1250	   4.1500	  0.0000	 
  1.1250	   4.6125	  0.0000	 
  1.1250	   5.0750	  0.0000	 
  1.1250	   5.5375	  0.0000	 
  1.1250	   6.0000	  0.0000	 
  1.1250	   6.4625	  0.0000	 
  1.1250	   6.9250	  0.0000	 
  1.1250	   7.3875	  0.0000	 
  1.1250	   7.8500	  0.0000	 
  1.1250	   8.3125	  0.0000	 
  1.1250	   8.7750	  0.0000	 
  1.1250	   9.2375	  0.0000	 
  1.1250	   9.7000	  0.0000	 
  1.1250	  10.1625	  0.0000	 
  1.3500	   2.0850	  0.0000	 
  1.3500	   2.5200	  0.0000	 
  1.3500	   2.9550	  0.0000	 
  1.3500	   3.3900	  0.0000	 
  1.3500	   3.8250	  0.0000	 
  1.3500	   4.2600	  0.0000	 
  1.3500	   4.6950	  0.0000	 
  1.3500	   5.1300	  0.0000	 
  1.3500	   5.5650	  0.0000	 
  1.3500	   6.0000	  0.0000	 
  1.3500	   6.4350	  0.0000	 
  1.3500	   6.8700	  0.0000	 
  1.3500	   7.3050	  0.0000	 
  1.3500	   7.7400	  0.0000	 
  1.3500	   8.1750	  0.0000	 
  1.3500	   8.6100	  0.0000	 
  1.3500	   9.0450	  0.0000	 
  1.3500	   9.4800	  0.0000	 
  1.3500	   9.9150	  0.0000	 
  1.5750	   2.3325	  0.0000	 
  1.5750	   2.7400	  0.0000	 
  1.5750	   3.1475	  0.0000	 
  1.5750	   3.5550	  0.0000	 
  1.5750	   3.9625	  0.0000	 
  1.5750	   4.3700	  0.0000	 
  1.5750	   4.7775	  0.0000	 
  1.5750	   5.1850	  0.0000	 
  1.5750	   5.5925	  0.0000	 
  1.5750	   6.0000	  0.0000	 
  1.5750	   6.4075	  0.0000	 
  1.5750	   6.8150	  0.0000	 
  1.5750	   7.2225	  0.0000	 
  1.5750	   7.6300	  0.0000	 
  1.5750	   8.0375	  0.0000	 
  1.5750	   8.4450	  0.0000	 
  1.5750	   8.8525	  0.0000	 
  1.5750	   9.2600	  0.0000	 
  1.5750	   9.6675	  0.0000	 
  1.8000	   2.5800	  0.0000	 
  1.8000	   2.9600	  0.0000	 
  1.8000	   3.3400	  0.0000	 
  1.8000	   3.7200	  0.0000	 
  1.8000	   4.1000	  0.0000	 
  1.8000	   4.4800	  0.0000	 
  1.8000	   4.8600	  0.0000	 
  1.8000	   5.2400	  0.0000	 
  1.8000	   5.6200	  0.0000	 
  1.8000	   6.0000	  0.0000	 
  1.8000	   6.3800	  0.0000	 
  1.8000	   6.7600	  0.0000	 
  1.8000	   7.1400	  0.0000	 
  1.8000	   7.5200	  0.0000	 
  1.8000	   7.9000	  0.0000	 
  1.8000	   8.2800	  0.0000	 
  1.8000	   8.6600	  0.0000	 
  1.8000	   9.0400	  0.0000	 
  1.8000	   9.4200	  0.0000	 
  2.0250	   2.8275	  0.0000	 
  2.0250	   3.1800	  0.0000	 
  2.0250	   3.5325	  0.0000	 
  2.0250	   3.8850	  0.0000	 
  2.0250	   4.2375	  0.0000	 
  2.0250	   4.5900	  0.0000	 
  2.0250	   4.9425	  0.0000	 
  2.0250	   5.2950	  0.0000	 
  2.0250	   5.6475	  0.0000	 
  2.0250	   6.0000	  0.0000	 
  2.0250	   6.3525	  0.0000	 
  2.0250	   6.7050	  0.0000	 
  2.0250	   7.0575	  0.0000	 
  2.0250	   7.4100	  0.0000	 
  2.0250	   7.7625	  0.0000	 
  2.0250	   8.1150	  0.0000	 
  2.0250	   8.4675	  0.0000	 
  2.0250	   8.8200	  0.0000	 
  2.0250	   9.1725	  0.0000	 
  2.2500	   3.0750	  0.0000	 
  2.2500	   3.4000	  0.0000	 
  2.2500	   3.7250	  0.0000	 
  2.2500	   4.0500	  0.0000	 
  2.2500	   4.3750	  0.0000	 
  2.2500	   4.7000	  0.0000	 
  2.2500	   5.0250	  0.0000	 
  2.2500	   5.3500	  0.0000	 
  2.2500	   5.6750	  0.0000	 
  2.2500	   6.0000	  0.0000	 
  2.2500	   6.3250	  0.0000	 
  2.2500	   6.6500	  0.0000	 
  2.2500	   6.9750	  0.0000	 
  2.2500	   7.3000	  0.0000	 
  2.2500	   7.6250	  0.0000	 
  2.2500	   7.9500	  0.0000	 
  2.2500	   8.2750	  0.0000	 
  2.2500	   8.6000	  0.0000	 
  2.2500	   8.9250	  0.0000	 
  2.4750	   3.3225	  0.0000	 
  2.4750	   3.6200	  0.0000	 
  2.4750	   3.9175	  0.0000	 
  2.4750	   4.2150	  0.0000	 
  2.4750	   4.5125	  0.0000	 
  2.4750	   4.8100	  0.0000	 
  2.4750	   5.1075	  0.0000	 
  2.4750	   5.4050	  0.0000	 
  2.4750	   5.7025	  0.0000	 
  2.4750	   6.0000	  0.0000	 
  2.4750	   6.2975	  0.0000	 
  2.4750	   6.5950	  0.0000	 
  2.4750	   6.8925	  0.0000	 
  2.4750	   7.1900	  0.0000	 
  2.4750	   7.4875	  0.0000	 
  2.4750	   7.7850	  0.0000	 
  2.4750	   8.0825	  0.0000	 
  2.4750	   8.3800	  0.0000	 
  2.4750	   8.6775	  0.0000	 
  2.7000	   3.5700	  0.0000	 
  2.7000	   3.8400	  0.0000	 
  2.7000	   4.1100	  0.0000	 
  2.7000	   4.3800	  0.0000	 
  2.7000	   4.6500	  0.0000	 
  2.7000	   4.9200	  0.0000	 
  2.7000	   5.1900	  0.0000	 
  2.7000	   5.4600	  0.0000	 
  2.7000	   5.7300	  0.0000	 
  2.7000	   6.0000	  0.0000	 
  2.7000	   6.2700	  0.0000	 
  2.7000	   6.5400	  0.0000	 
  2.7000	   6.8100	  0.0000	 
  2.7000	   7.0800	  0.0000	 
  2.7000	   7.3500	  0.0000	 
  2.7000	   7.6200	  0.0000	 
  2.7000	   7.8900	  0.0000	 
  2.7000	   8.1600	  0.0000	 
  2.7000	   8.4300	  0.0000	 
  2.9250	   3.8175	  0.0000	 
  2.9250	   4.0600	  0.0000	 
  2.9250	   4.3025	  0.0000	 
  2.9250	   4.5450	  0.0000	 
  2.9250	   4.7875	  0.0000	 
  2.9250	   5.0300	  0.0000	 
  2.9250	   5.2725	  0.0000	 
  2.9250	   5.5150	  0.0000	 
  2.9250	   5.7575	  0.0000	 
  2.9250	   6.0000	  0.0000	 
  2.9250	   6.2425	  0.0000	 
  2.9250	   6.4850	  0.0000	 
  2.9250	   6.7275	  0.0000	 
  2.9250	   6.9700	  0.0000	 
  2.9250	   7.2125	  0.0000	 
  2.9250	   7.4550	  0.0000	 
  2.9250	   7.6975	  0.0000	 
  2.9250	   7.9400	  0.0000	 
  2.9250	   8.1825	  0.0000	 
  3.1500	   4.0650	  0.0000	 
  3.1500	   4.2800	  0.0000	 
  3.1500	   4.4950	  0.0000	 
  3.1500	   4.7100	  0.0000	 
  3.1500	   4.9250	  0.0000	 
  3.1500	   5.1400	  0.0000	 
  3.1500	   5.3550	  0.0000	 
  3.1500	   5.5700	  0.0000	 
  3.1500	   5.7850	  0.0000	 
  3.1500	   6.0000	  0.0000	 
  3.1500	   6.2150	  0.0000	 
  3.1500	   6.4300	  0.0000	 
  3.1500	   6.6450	  0.0000	 
  3.1500	   6.8600	  0.0000	 
  3.1500	   7.0750	  0.0000	 
  3.1500	   7.2900	  0.0000	 
  3.1500	   7.5050	  0.0000	 
  3.1500	   7.7200	  0.0000	 
  3.1500	   7.9350	  0.0000	 
  3.3750	   4.3125	  0.0000	 
  3.3750	   4.5000	  0.0000	 
  3.3750	   4.6875	  0.0000	 
  3.3750	   4.8750	  0.0000	 
  3.3750	   5.0625	  0.0000	 
  3.3750	   5.2500	  0.0000	 
  3.3750	   5.4375	  0.0000	 
  3.3750	   5.6250	  0.0000	 
  3.3750	   5.8125	  0.0000	 
  3.3750	   6.0000	  0.0000	 
  3.3750	   6.1875	  0.0000	 
  3.3750	   6.3750	  0.0000	 
  3.3750	   6.5625	  0.0000	 
  3.3750	   6.7500	  0.0000	 
  3.3750	   6.9375	  0.0000	 
  3.3750	   7.1250	  0.0000	 
  3.3750	   7.3125	  0.0000	 
  3.3750	   7.5000	  0.0000	 
  3.3750	   7.6875	  0.0000	 
  3.6000	   4.5600	  0.0000	 
  3.6000	   4.7200	  0.0000	 
  3.6000	   4.8800	  0.0000	 
  3.6000	   5.0400	  0.0000	 
  3.6000	   5.2000	  0.0000	 
  3.6000	   5.3600	  0.0000	 
  3.6000	   5.5200	  0.0000	 
  3.6000	   5.6800	  0.0000	 
  3.6000	   5.8400	  0.0000	 
  3.6000	   6.0000	  0.0000	 
  3.6000	   6.1600	  0.0000	 
  3.6000	   6.3200	  0.0000	 
  3.6000	   6.4800	  0.0000	 
  3.6000	   6.6400	  0.0000	 
  3.6000	   6.8000	  0.0000	 
  3.6000	   6.9600	  0.0000	 
  3.6000	   7.1200	  0.0000	 
  3.6000	   7.2800	  0.0000	 
  3.6000	   7.4400	  0.0000	 
  3.8250	   4.8075	  0.0000	 
  3.8250	   4.9400	  0.0000	 
  3.8250	   5.0725	  0.0000	 
  3.8250	   5.2050	  0.0000	 
  3.8250	   5.3375	  0.0000	 
  3.8250	   5.4700	  0.0000	 
  3.8250	   5.6025	  0.0000	 
[...]
POINT_DATA 	    1451 
VECTORS U float 
 50.0000	   0.0000	   0.0000	
 50.0000	   0.0000	   0.0000	
 50.0000	   0.0000	   0.0000	
 50.0000	   0.0000	   0.0000	
 50.0000	  -0.0000	   0.0000	
 50.0000	  -0.0000	   0.0000	
 50.0000	   0.0000	   0.0000	
 50.0000	  -0.0000	   0.0000	
 50.0000	  -0.0000	   0.0000	
 50.0000	   0.0000	   0.0000	
 50.0000	  -0.0000	   0.0000	
 50.0000	  -0.0000	   0.0000	
 50.0000	   0.0000	   0.0000	
 50.0000	   0.0000	   0.0000	
 50.0000	  -0.0000	   0.0000	
 50.0000	  -0.0000	   0.0000	
 50.0000	   0.0000	   0.0000	
 50.0000	   0.0000	   0.0000	
 50.0000	  -0.0000	   0.0000	
 49.2171	   5.8949	   0.0000	
 50.2344	   5.4434	   0.0000	
 50.2022	   8.6656	   0.0000	
 49.8973	  16.7914	   0.0000	
 49.9580	   9.5930	   0.0000	
 49.8932	  15.5590	   0.0000	
 49.5659	  18.0206	   0.0000	
 49.3655	  22.4702	   0.0000	
 49.7190	  25.6793	   0.0000	
 49.8331	  27.3709	   0.0000	
 49.9105	  27.5983	   0.0000	
 50.5482	  26.4567	   0.0000	
 50.2158	  23.2291	   0.0000	
 50.0832	  21.9158	   0.0000	
 50.2959	  21.4052	   0.0000	
 50.0139	  13.7766	   0.0000	
 49.9415	  16.3187	   0.0000	
 49.3648	  13.7776	   0.0000	
 50.4185	  14.2365	   0.0000	
 50.7418	  10.9059	   0.0000	
 47.0136	  15.0563	   0.0000	
 43.6068	  28.9847	   0.0000	
 55.7731	  22.2120	   0.0000	
 45.4881	  28.2360	   0.0000	
 48.1944	  33.9722	   0.0000	
 46.3723	  43.0078	   0.0000	
 47.1287	  51.1183	   0.0000	
 48.4556	  55.4270	   0.0000	
 49.4427	  57.1128	   0.0000	
 50.0497	  57.0400	   0.0000	
 51.2211	  57.0982	   0.0000	
 53.2286	  51.4627	   0.0000	
 50.7431	  42.6452	   0.0000	
 50.1481	  41.1651	   0.0000	
 55.5216	  39.0453	   0.0000	
 48.0158	  29.0469	   0.0000	
 52.5993	  29.4889	   0.0000	
 50.0342	  29.9679	   0.0000	
 47.1898	  17.2206	   0.0000	
 39.4315	  37.9172	   0.0000	
 51.5703	  34.0191	   0.0000	
 49.5214	  41.3433	   0.0000	
 43.7187	  45.7514	   0.0000	
 43.4250	  56.4955	   0.0000	
 43.0267	  65.2387	   0.0000	
 45.3505	  69.4315	   0.0000	
 47.5497	  72.5644	   0.0000	
 47.6357	  76.0364	   0.0000	
 50.2875	  81.2963	   0.0000	
 51.1480	  79.7004	   0.0000	
 55.2352	  81.1657	   0.0000	
 56.4813	  73.8137	   0.0000	
 52.0539	  61.3940	   0.0000	
 53.5017	  57.2884	   0.0000	
 55.9865	  57.0975	   0.0000	
 51.0698	  46.5409	   0.0000	
 47.1755	  44.2840	   0.0000	
 28.1597	  41.4826	   0.0000	
 44.9875	  43.4960	   0.0000	
 50.1710	  50.0622	   0.0000	
 44.2062	  60.0484	   0.0000	
 39.1414	  58.5529	   0.0000	
 40.0752	  65.1561	   0.0000	
 41.3245	  68.0855	   0.0000	
 44.2946	  71.5392	   0.0000	
 46.4333	  73.5787	   0.0000	
 47.4672	  74.1468	   0.0000	
 47.3994	  74.0200	   0.0000	
 51.2999	  81.2839	   0.0000	
 53.8076	  79.9993	   0.0000	
 58.9695	  82.7093	   0.0000	
 59.1007	  76.8136	   0.0000	
 54.3655	  74.6720	   0.0000	
 56.3422	  74.7561	   0.0000	
 54.6886	  74.1860	   0.0000	
 55.8496	  61.4306	   0.0000	
 37.0350	  49.5374	   0.0000	
 44.9716	  59.9438	   0.0000	
 41.4123	  69.6452	   0.0000	
 46.5482	  69.2447	   0.0000	
 37.2800	  66.1325	   0.0000	
 39.5425	  66.4229	   0.0000	
 40.4860	  68.2466	   0.0000	
 43.7948	  69.1943	   0.0000	
 45.8805	  70.5657	   0.0000	
 46.7204	  72.0250	   0.0000	
 48.0243	  73.4917	   0.0000	
 47.1887	  71.8121	   0.0000	
 53.6443	  80.2021	   0.0000	
 56.6687	  78.9992	   0.0000	
 61.0784	  82.8359	   0.0000	
 52.2943	  85.6145	   0.0000	
 54.3965	  89.2721	   0.0000	
 55.8755	  91.7927	   0.0000	
 62.8844	  95.4856	   0.0000	
 35.2620	  66.5437	   0.0000	
 41.5172	  78.7615	   0.0000	
 44.0765	  74.5553	   0.0000	
 45.4070	  77.4207	   0.0000	
 38.0011	  70.9333	   0.0000	
 39.1594	  72.2248	   0.0000	
 40.9134	  71.3883	   0.0000	
 43.2793	  73.0081	   0.0000	
 45.4917	  74.4810	   0.0000	
 45.2762	  77.0652	   0.0000	
 46.9173	  80.2576	   0.0000	
 48.2637	  82.0005	   0.0000	
 48.0774	  79.9659	   0.0000	
 56.3923	  88.3496	   0.0000	
 57.9861	  87.1516	   0.0000	
 53.1659	  96.5945	   0.0000	
 50.9294	  97.3480	   0.0000	
 53.3029	 104.2878	   0.0000	
 50.2276	 112.8784	   0.0000	
 33.1849	  66.1313	   0.0000	
 45.4440	  69.8090	   0.0000	
 43.2883	  69.1976	   0.0000	
 45.5533	  70.7172	   0.0000	
 37.6401	  67.6679	   0.0000	
 40.3019	  66.6188	   0.0000	
 40.1733	  68.1305	   0.0000	
 42.6812	  70.4292	   0.0000	
 43.8408	  73.6098	   0.0000	
 44.7056	  75.0100	   0.0000	
 45.3928	  75.6538	   0.0000	
 46.8851	  78.8029	   0.0000	
 49.5182	  80.5016	   0.0000	
 49.9570	  77.0193	   0.0000	
 58.3026	  84.8094	   0.0000	
 50.9067	  86.9835	   0.0000	
 51.0678	  90.9461	   0.0000	
 48.3617	  92.7906	   0.0000	
 46.6097	 104.2174	   0.0000	
 38.8297	  60.4414	   0.0000	
 45.0270	  66.5664	   0.0000	
 42.9442	  65.4943	   0.0000	
 43.5658	  70.7080	   0.0000	
 39.0789	  65.6723	   0.0000	
 39.1660	  67.7125	   0.0000	
 39.3671	  69.5301	   0.0000	
 40.9752	  72.6569	   0.0000	
 43.0436	  74.7210	   0.0000	
 43.5750	  76.6097	   0.0000	
 45.1167	  78.4739	   0.0000	
 44.7785	  78.4468	   0.0000	
 47.9304	  81.9119	   0.0000	
 52.3966	  82.2469	   0.0000	
 51.3697	  77.5753	   0.0000	
 52.9704	  88.7475	   0.0000	
 49.4762	  86.3196	   0.0000	
 49.1578	  88.5665	   0.0000	
 40.7505	  95.6386	   0.0000	
 39.4919	  58.7182	   0.0000	
 44.1521	  64.5120	   0.0000	
 39.8500	  66.2913	   0.0000	
 44.5262	  68.1844	   0.0000	
 37.6708	  66.6111	   0.0000	
 38.2562	  68.5715	   0.0000	
 37.6838	  70.9842	   0.0000	
 40.0238	  73.2846	   0.0000	
 41.7652	  75.6188	   0.0000	
 42.0022	  78.1623	   0.0000	
 44.0712	  80.6522	   0.0000	
 44.9862	  82.0020	   0.0000	
 45.2063	  81.5375	   0.0000	
 51.0001	  83.6982	   0.0000	
 55.2062	  83.1547	   0.0000	
 45.4811	  82.4294	   0.0000	
 52.5533	  90.0924	   0.0000	
 49.2237	  87.2694	   0.0000	
 41.6154	  93.1647	   0.0000	
 38.8142	  59.0214	   0.0000	
 40.4421	  66.1892	   0.0000	
 41.1815	  64.6820	   0.0000	
 41.9997	  69.2125	   0.0000	
 36.4415	  68.1006	   0.0000	
 36.5878	  70.4068	   0.0000	
 36.5914	  72.2474	   0.0000	
 38.7290	  74.6975	   0.0000	
 40.2292	  77.2453	   0.0000	
 40.8052	  78.9425	   0.0000	
 42.5872	  80.0615	   0.0000	
 43.7686	  81.8673	   0.0000	
 45.6810	  83.1130	   0.0000	
 48.1584	  80.7103	   0.0000	
 53.6724	  82.4188	   0.0000	
 51.1402	  85.7238	   0.0000	
 42.8149	  84.0317	   0.0000	
 53.3085	  90.3233	   0.0000	
 44.1829	  91.7063	   0.0000	
 35.4188	  61.3174	   0.0000	
 42.6013	  63.9796	   0.0000	
 38.0208	  64.0539	   0.0000	
 39.9813	  68.5644	   0.0000	
 34.6299	  68.0785	   0.0000	
 35.2243	  70.5233	   0.0000	
 35.6018	  71.8439	   0.0000	
 37.2024	  73.9676	   0.0000	
 38.7902	  76.3174	   0.0000	
 39.2399	  78.6174	   0.0000	
 42.2982	  80.6585	   0.0000	
 42.2297	  80.6106	   0.0000	
 44.6377	  82.3432	   0.0000	
 49.3351	  81.5363	   0.0000	
 49.8853	  79.5557	   0.0000	
 50.0543	  85.5125	   0.0000	
 48.2607	  88.4066	   0.0000	
 42.0874	  87.0180	   0.0000	
 50.0530	  94.0380	   0.0000	
 39.8931	  60.7330	   0.0000	
 38.9054	  64.6346	   0.0000	
 35.6875	  65.7941	   0.0000	
 36.7475	  70.6675	   0.0000	
 32.9418	  70.9922	   0.0000	
 34.3998	  72.7135	   0.0000	
 34.3925	  74.3155	   0.0000	
 35.6586	  76.6836	   0.0000	
 36.9328	  79.3185	   0.0000	
 36.0800	  83.2320	   0.0000	
 40.4543	  86.9011	   0.0000	
 42.5143	  88.1444	   0.0000	
 42.9574	  87.2613	   0.0000	
 48.1894	  86.7285	   0.0000	
 51.1106	  86.8425	   0.0000	
 44.9047	  89.4248	   0.0000	
 46.1200	  95.8069	   0.0000	
 49.9996	  93.8228	   0.0000	
 37.6873	  93.0246	   0.0000	
 36.2239	  57.5442	   0.0000	
 34.4020	  59.8884	   0.0000	
 31.9629	  62.3580	   0.0000	
 33.4957	  68.3043	   0.0000	
 31.6491	  69.5826	   0.0000	
 33.1932	  71.9935	   0.0000	
 32.0062	  74.6649	   0.0000	
 33.5558	  78.0771	   0.0000	
 33.2012	  82.5876	   0.0000	
 37.0977	  81.5444	   0.0000	
 37.7502	  79.8906	   0.0000	
 40.9559	  82.4621	   0.0000	
 44.0727	  83.7038	   0.0000	
 46.8858	  81.0710	   0.0000	
 48.5065	  82.9346	   0.0000	
 46.3867	  88.0274	   0.0000	
 39.5820	  91.4378	   0.0000	
 50.7830	  88.1654	   0.0000	
 52.5768	  80.8084	   0.0000	
 31.4370	  60.7790	   0.0000	
 28.9086	  63.5671	   0.0000	
 27.0586	  67.0016	   0.0000	
 31.2522	  71.1018	   0.0000	
 29.3933	  72.2301	   0.0000	
 29.4703	  76.4686	   0.0000	
 29.4474	  79.2424	   0.0000	
 28.8208	  82.9186	   0.0000	
 34.8266	  82.2339	   0.0000	
 35.2648	  82.6002	   0.0000	
 39.9706	  85.2029	   0.0000	
 37.1761	  82.8612	   0.0000	
 42.2995	  85.2003	   0.0000	
 47.9107	  84.0116	   0.0000	
 43.4419	  86.6252	   0.0000	
 42.6754	  94.0283	   0.0000	
 41.2464	  98.8588	   0.0000	
 46.9307	  90.6307	   0.0000	
 58.4265	  81.0962	   0.0000	
 25.8387	  58.4459	   0.0000	
 22.0934	  64.0445	   0.0000	
 26.9838	  67.0197	   0.0000	
 28.4520	  70.9486	   0.0000	
 24.5046	  73.5053	   0.0000	
 26.7627	  76.9490	   0.0000	
 25.9093	  79.1207	   0.0000	
 32.5217	  76.8498	   0.0000	
 35.3852	  75.5073	   0.0000	
 27.4831	  82.0915	   0.0000	
 35.6641	  89.0930	   0.0000	
 39.7534	  92.5761	   0.0000	
 39.6918	  90.5916	   0.0000	
 43.9428	  92.0843	   0.0000	
 42.9265	  98.2822	   0.0000	
 34.2921	 104.8965	   0.0000	
 39.6687	 105.0849	   0.0000	
 54.6133	  93.5144	   0.0000	
 55.1820	  82.1129	   0.0000	
 20.4569	  53.2243	   0.0000	
 23.2802	  55.6475	   0.0000	
 10.7499	  66.2898	   0.0000	
 19.1700	  81.1679	   0.0000	
 21.5374	  86.8885	   0.0000	
 23.8134	  90.5461	   0.0000	
 31.9608	  89.5069	   0.0000	
 35.1878	  88.4611	   0.0000	
 25.0224	  95.8429	   0.0000	
 31.0712	  93.6239	   0.0000	
 26.6678	  90.6524	   0.0000	
 31.9576	  97.9651	   0.0000	
 42.6088	 102.5076	   0.0000	
 37.4842	 100.9307	   0.0000	
 35.6239	 107.7507	   0.0000	
 34.0317	 111.6675	   0.0000	
 49.2441	  99.9742	   0.0000	
 45.3296	  87.5060	   0.0000	
 66.0102	  73.8003	   0.0000	
  1.5061	  45.1816	   0.0000	
 -7.2933	  53.2412	   0.0000	
  8.4416	  62.2932	   0.0000	
 14.3717	  67.8230	   0.0000	
 17.8517	  71.3592	   0.0000	
 30.5444	  73.3551	   0.0000	
 34.2453	  73.5187	   0.0000	
 19.4069	  79.6801	   0.0000	
 28.6537	  79.8523	   0.0000	
 21.2137	  85.1039	   0.0000	
 31.2351	  92.2259	   0.0000	
 17.3476	  91.6739	   0.0000	
 27.8975	 100.2723	   0.0000	
 42.9991	 104.9935	   0.0000	
 25.1744	 114.2169	   0.0000	
 33.9352	 121.5425	   0.0000	
 32.2939	 116.7554	   0.0000	
 65.4721	 109.5329	   0.0000	
 73.9802	  90.1035	   0.0000	
 -8.4278	  63.9897	   0.0000	
  2.5911	  71.5172	   0.0000	
  7.8663	  76.9970	   0.0000	
 17.9831	  80.6959	   0.0000	
 27.9633	  85.3393	   0.0000	
 28.8543	  86.0663	   0.0000	
 11.1640	  94.9581	   0.0000	
 21.3314	  99.1256	   0.0000	
 16.2155	 106.2527	   0.0000	
 12.7224	 111.2158	   0.0000	
 15.0116	 115.6794	   0.0000	
 21.3098	 123.8139	   0.0000	
  3.2066	 128.8506	   0.0000	
 20.3062	 135.2997	   0.0000	
 15.1487	 148.6462	   0.0000	
  9.2255	 160.2960	   0.0000	
 25.3504	 155.1131	   0.0000	
 53.0166	 139.5106	   0.0000	
 66.4719	 114.5242	   0.0000	
 -1.8996	  27.1781	   0.0000	
  3.8847	  31.9215	   0.0000	
 10.5876	  36.9790	   0.0000	
 22.9773	  43.7758	   0.0000	
  0.5136	  52.4513	   0.0000	
  0.4550	  53.1913	   0.0000	
  8.4484	  57.4460	   0.0000	
  0.3908	  61.2656	   0.0000	
  6.1563	  64.4610	   0.0000	
  0.4277	  67.3243	   0.0000	
  5.7802	  70.1895	   0.0000	
  0.5516	  73.1479	   0.0000	
  6.6323	  76.4758	   0.0000	
 -0.8611	  79.0699	   0.0000	
  0.0246	  78.5538	   0.0000	
 -3.8582	  83.1808	   0.0000	
 -0.3252	  82.2656	   0.0000	
 21.4977	  78.3222	   0.0000	
 54.0148	  69.9300	   0.0000	
 -0.0000	  -0.0000	   0.0000	
  0.0000	   0.0000	   0.0000	
 -0.0000	   0.0000	   0.0000	
 -0.0000	   0.0000	   0.0000	
  0.0000	  -0.0000	   0.0000	
 -0.0000	   0.0000	   0.0000	
  0.0000	   0.0000	   0.0000	
  0.0000	  -0.0000	   0.0000	
 -0.0000	  -0.0000	   0.0000	
  0.0000	   0.0000	   0.0000	
  0.0000	   0.0000	   0.0000	
  0.0000	  -0.0000	   0.0000	
 -0.0000	   0.0000	   0.0000	
 -0.0000	   0.0000	   0.0000	
 -0.0000	  -0.0000	   0.0000	
 -0.0000	  -0.0000	   0.0000	
  0.0000	  -0.0000	   0.0000	
 -0.0000	  -0.0000	   0.0000	
  0.0000	   0.0000	   0.0000	
 50.0000	  50.0000	   0.0000	
 50.0000	  -0.0000	   0.0000	
 68.1924	  50.1223	   0.0000	
 49.9908	  15.3883	   0.0000	
 85.6315	  50.2921	   0.0000	
 48.7102	  30.6698	   0.0000	
 83.5308	  54.8250	   0.0000	
 49.5710	  46.3446	   0.0000	
 84.5387	  58.0994	   0.0000	
 48.9786	  61.7039	   0.0000	
 58.9093	  77.1795	   0.0000	
 46.4860	  76.2106	   0.0000	
 50.6753	  80.4263	   0.0000	
 79.8048	 105.1520	   0.0000	
 47.6043	  78.2614	   0.0000	
 65.3512	  92.1543	   0.0000	
 44.3173	  76.0881	   0.0000	
 59.3642	  85.2086	   0.0000	
 49.1092	  69.6181	   0.0000	
 53.0687	  78.9990	   0.0000	
 47.8633	  67.5091	   0.0000	
 53.6927	  77.5746	   0.0000	
 44.8052	  66.0526	   0.0000	
 56.7650	  77.1476	   0.0000	
 39.2061	  65.4664	   0.0000	
 64.6971	  78.9172	   0.0000	
 42.2326	  59.7576	   0.0000	
 48.8809	  68.5184	   0.0000	
 35.4944	  57.4932	   0.0000	
 62.5544	  71.2454	   0.0000	
 27.0475	  55.4004	   0.0000	
 68.7249	  69.6198	   0.0000	
 17.7402	  52.2739	   0.0000	
 68.2885	  63.6957	   0.0000	
 21.0395	  39.8151	   0.0000	
 78.8753	  61.8171	   0.0000	
-25.0236	  53.4591	   0.0000	
116.5410	  74.0833	   0.0000	
 -7.8215	  21.4531	   0.0000	
100.2770	  45.1254	   0.0000	
 -0.0000	   0.0000	   0.0000	
 -0.0000	  -0.0000	   0.0000	
 50.2630	  50.0000	   0.0000	
 83.9883	 150.5167	   0.0000	
 50.0305	  49.0092	   0.0000	
 50.5689	 134.5335	   0.0000	
 47.8039	  48.3842	   0.0000	
 36.4703	 119.9687	   0.0000	
 46.9571	  47.0641	   0.0000	
 28.1851	 107.9190	   0.0000	
 44.5376	  46.6362	   0.0000	
 28.3803	 102.2253	   0.0000	
 42.9522	  45.8298	   0.0000	
 28.3474	  97.7218	   0.0000	
 43.7228	  44.8970	   0.0000	
 27.9757	  93.9882	   0.0000	
 44.5160	  43.6462	   0.0000	
 28.9871	  90.6257	   0.0000	
 43.6377	  42.9908	   0.0000	
 31.5288	  87.6517	   0.0000	
 40.0741	  43.3872	   0.0000	
 35.0694	  84.4823	   0.0000	
 40.1738	  41.9834	   0.0000	
 39.7989	  81.7589	   0.0000	
 46.9919	  37.8676	   0.0000	
 28.9657	  73.0411	   0.0000	
 41.6688	  38.1270	   0.0000	
 40.0958	  72.2628	   0.0000	
 40.5568	  35.3592	   0.0000	
 42.9869	  66.9717	   0.0000	
 38.0737	  31.6477	   0.0000	
 43.9673	  61.1819	   0.0000	
 41.6061	  25.7292	   0.0000	
 49.5426	  53.4427	   0.0000	
 19.6636	  25.8072	   0.0000	
 71.3785	  49.4465	   0.0000	
 17.7788	  17.2922	   0.0000	
 68.9218	  35.5938	   0.0000	
 34.0905	   2.1627	   0.0000	
 59.0459	  19.4144	   0.0000	
 23.2429	   0.5892	   0.0000	
  0.0150	  -1.3847	   0.0000	
 -0.0000	   0.0000	   0.0000	
 -0.0000	  -0.0000	   0.0000	
 59.7789	  50.0000	   0.0000	
-41.0341	  69.6384	   0.0000	
 54.1583	  50.8485	   0.0000	
-10.1304	  70.7987	   0.0000	
 51.2884	  51.2107	   0.0000	
  4.1514	  70.5129	   0.0000	
 48.2792	  51.8357	   0.0000	
 11.3672	  69.7847	   0.0000	
 48.1059	  52.0555	   0.0000	
 13.3881	  68.3633	   0.0000	
 48.9757	  52.3215	   0.0000	
 14.4535	  67.0373	   0.0000	
 48.2481	  52.9291	   0.0000	
 15.5726	  65.2049	   0.0000	
 47.4030	  52.8020	   0.0000	
 17.6715	  63.1834	   0.0000	
 47.1415	  53.4154	   0.0000	
 18.7467	  61.2750	   0.0000	
 46.1104	  53.9714	   0.0000	
 21.6702	  60.1444	   0.0000	
 52.7565	  53.5033	   0.0000	
 15.6430	  58.1454	   0.0000	
 52.5628	  53.6773	   0.0000	
 17.7812	  54.8793	   0.0000	
 55.7480	  53.5085	   0.0000	
 19.6088	  51.6412	   0.0000	
 57.6261	  53.8105	   0.0000	
 11.6878	  47.4060	   0.0000	
 61.4843	  53.5545	   0.0000	
 16.5055	  44.1615	   0.0000	
 60.6126	  50.2381	   0.0000	
 22.8650	  37.5071	   0.0000	
 58.3936	  48.5426	   0.0000	
 25.9380	  32.9308	   0.0000	
 62.6859	  48.1729	   0.0000	
 28.2024	  29.0098	   0.0000	
 59.0050	  46.6039	   0.0000	
  3.6755	  28.7512	   0.0000	
 37.0546	  45.4522	   0.0000	
  3.6298	  33.8555	   0.0000	
 26.8663	  42.3640	   0.0000	
 -0.5800	  36.1964	   0.0000	
 43.9170	  50.0000	   0.0000	
 11.2987	  55.6353	   0.0000	
 47.0506	  51.3720	   0.0000	
 -2.1445	  60.5929	   0.0000	
 46.1141	  51.8571	   0.0000	
  1.2935	  61.1719	   0.0000	
 44.4299	  51.9767	   0.0000	
  5.3369	  60.5370	   0.0000	
 43.9532	  52.3939	   0.0000	
  6.7115	  60.3895	   0.0000	
 43.9910	  52.9587	   0.0000	
  7.7583	  60.2659	   0.0000	
 42.4331	  53.1366	   0.0000	
 10.2456	  59.5054	   0.0000	
 43.1004	  54.0569	   0.0000	
  8.7311	  60.3954	   0.0000	
 43.9794	  54.5842	   0.0000	
 11.5261	  59.4739	   0.0000	
 43.5572	  55.3992	   0.0000	
 13.4079	  59.1107	   0.0000	
 44.5117	  56.7855	   0.0000	
 14.4948	  59.3218	   0.0000	
 45.8384	  57.9203	   0.0000	
 11.2367	  59.5116	   0.0000	
 48.1276	  59.9327	   0.0000	
  5.4506	  61.3009	   0.0000	
 48.3585	  61.9591	   0.0000	
 11.1924	  61.2323	   0.0000	
 49.1916	  63.4379	   0.0000	
  9.8548	  61.1197	   0.0000	
 56.7989	  68.3550	   0.0000	
  6.9227	  62.4120	   0.0000	
 53.2149	  70.2044	   0.0000	
 11.0761	  60.9799	   0.0000	
 51.1027	  72.7355	   0.0000	
 15.4282	  59.1554	   0.0000	
 51.4510	  75.4720	   0.0000	
 19.8985	  56.6836	   0.0000	
 44.6289	  78.8412	   0.0000	
 19.5888	  62.2499	   0.0000	
 25.5188	  77.8637	   0.0000	
 20.2843	  66.3404	   0.0000	
 46.9837	  50.0000	   0.0000	
 -0.5009	  45.8633	   0.0000	
 46.2821	  49.6466	   0.0000	
  2.8418	  45.1865	   0.0000	
 45.1751	  49.3856	   0.0000	
  5.4458	  44.5678	   0.0000	
 43.5927	  48.8858	   0.0000	
  8.1484	  43.9435	   0.0000	
 43.6525	  49.2117	   0.0000	
  6.6050	  45.7829	   0.0000	
 43.6733	  49.5903	   0.0000	
  5.6520	  47.7249	   0.0000	
 42.4295	  49.2220	   0.0000	
  7.2602	  47.9719	   0.0000	
 42.2886	  49.5713	   0.0000	
  8.3963	  48.9133	   0.0000	
 41.5955	  49.6263	   0.0000	
 10.1303	  49.2557	   0.0000	
 40.7993	  49.4159	   0.0000	
 11.1610	  49.8115	   0.0000	
 42.5700	  50.7030	   0.0000	
 10.2091	  51.4712	   0.0000	
 38.1532	  49.3357	   0.0000	
 15.1063	  50.1017	   0.0000	
 39.7499	  51.0349	   0.0000	
 14.7602	  51.1697	   0.0000	
 41.5862	  52.7100	   0.0000	
 12.0431	  53.5383	   0.0000	
 41.0550	  54.6074	   0.0000	
 14.6040	  55.3806	   0.0000	
 40.6638	  55.7905	   0.0000	
 13.4711	  56.8504	   0.0000	
 40.3341	  58.6687	   0.0000	
 13.9511	  59.0606	   0.0000	
 41.5124	  63.7090	   0.0000	
 13.9543	  61.6502	   0.0000	
 37.5716	  66.2281	   0.0000	
 20.6008	  61.2134	   0.0000	
 43.1143	  72.1417	   0.0000	
 18.3865	  63.6843	   0.0000	
 28.8290	  70.9617	   0.0000	
 36.0068	  58.8130	   0.0000	
 52.5688	  50.0000	   0.0000	
  1.0232	  31.6965	   0.0000	
 49.6913	  49.4665	   0.0000	
  2.5270	  32.9767	   0.0000	
 46.6539	  48.8919	   0.0000	
  3.9918	  34.2704	   0.0000	
 45.2900	  48.7402	   0.0000	
  5.3657	  35.5580	   0.0000	
 45.4163	  49.1368	   0.0000	
  7.5194	  36.5774	   0.0000	
 45.7852	  49.7409	   0.0000	
  8.0982	  38.4699	   0.0000	
 42.8886	  47.9810	   0.0000	
  9.5725	  39.1862	   0.0000	
 42.1674	  47.8830	   0.0000	
 10.4404	  39.6834	   0.0000	
 42.0025	  48.1732	   0.0000	
 11.1771	  40.5737	   0.0000	
 41.2171	  48.2741	   0.0000	
 12.1396	  42.0794	   0.0000	
 40.7125	  48.3628	   0.0000	
 14.1228	  42.9028	   0.0000	
 40.0717	  48.3712	   0.0000	
 14.7677	  44.2668	   0.0000	
 39.8055	  48.8589	   0.0000	
 15.6273	  45.8292	   0.0000	
 39.4870	  49.5523	   0.0000	
 15.6215	  47.7952	   0.0000	
 39.1459	  48.6656	   0.0000	
 15.7019	  47.9831	   0.0000	
 39.1872	  49.4701	   0.0000	
 15.9446	  48.9249	   0.0000	
 35.0917	  48.4942	   0.0000	
 24.8658	  46.5623	   0.0000	
 38.7085	  52.8692	   0.0000	
 16.7135	  54.8172	   0.0000	
 34.7690	  52.2323	   0.0000	
 21.7549	  54.1706	   0.0000	
 32.0366	  53.3053	   0.0000	
 22.0671	  57.2216	   0.0000	
 34.2208	  58.9180	   0.0000	
 22.3250	  58.8696	   0.0000	
  0.0000	   0.0000	   0.0000	
  0.0000	   0.0000	   0.0000	
 -0.0000	   0.0000	   0.0000	
  0.0000	  -0.0000	   0.0000	
 -0.0000	   0.0000	   0.0000	
  0.0000	   0.0000	   0.0000	
 -0.0000	   0.0000	   0.0000	
 -0.0000	  -0.0000	   0.0000	
 -0.0000	  -0.0000	   0.0000	
 -0.0000	   0.0000	   0.0000	
 -0.0000	  -0.0000	   0.0000	
 -0.0000	  -0.0000	   0.0000	
 -0.0000	   0.0000	   0.0000	
 -0.0000	  -0.0000	   0.0000	