# vtk DataFile Version 3.0 
Results 
ASCII 
DATASET UNSTRUCTURED_GRID 
POINTS 	     299 float 
  0.0000	   1.5000	  0.0000	 
  0.0000	   3.0000	  0.0000	 
  0.0000	   4.5000	  0.0000	 
  0.0000	   6.0000	  0.0000	 
  0.0000	   7.5000	  0.0000	 
  0.0000	   9.0000	  0.0000	 
  0.0000	  10.5000	  0.0000	 
  0.5625	   2.0156	  0.0000	 
  0.5625	   3.3438	  0.0000	 
  0.5625	   4.6719	  0.0000	 
  0.5625	   6.0000	  0.0000	 
  0.5625	   7.3281	  0.0000	 
  0.5625	   8.6562	  0.0000	 
  0.5625	   9.9844	  0.0000	 
  1.1250	   2.5312	  0.0000	 
  1.1250	   3.6875	  0.0000	 
  1.1250	   4.8438	  0.0000	 
  1.1250	   6.0000	  0.0000	 
  1.1250	   7.1562	  0.0000	 
  1.1250	   8.3125	  0.0000	 
  1.1250	   9.4688	  0.0000	 
  1.6875	   3.0469	  0.0000	 
  1.6875	   4.0312	  0.0000	 
  1.6875	   5.0156	  0.0000	 
  1.6875	   6.0000	  0.0000	 
  1.6875	   6.9844	  0.0000	 
  1.6875	   7.9688	  0.0000	 
  1.6875	   8.9531	  0.0000	 
  2.2500	   3.5625	  0.0000	 
  2.2500	   4.3750	  0.0000	 
  2.2500	   5.1875	  0.0000	 
  2.2500	   6.0000	  0.0000	 
  2.2500	   6.8125	  0.0000	 
  2.2500	   7.6250	  0.0000	 
  2.2500	   8.4375	  0.0000	 
  2.8125	   4.0781	  0.0000	 
  2.8125	   4.7188	  0.0000	 
  2.8125	   5.3594	  0.0000	 
  2.8125	   6.0000	  0.0000	 
  2.8125	   6.6406	  0.0000	 
  2.8125	   7.2812	  0.0000	 
  2.8125	   7.9219	  0.0000	 
  3.3750	   4.5938	  0.0000	 
  3.3750	   5.0625	  0.0000	 
  3.3750	   5.5312	  0.0000	 
  3.3750	   6.0000	  0.0000	 
  3.3750	   6.4688	  0.0000	 
  3.3750	   6.9375	  0.0000	 
  3.3750	   7.4062	  0.0000	 
  3.9375	   5.1094	  0.0000	 
  3.9375	   5.4062	  0.0000	 
  3.9375	   5.7031	  0.0000	 
  3.9375	   6.0000	  0.0000	 
  3.9375	   6.2969	  0.0000	 
  3.9375	   6.5938	  0.0000	 
  3.9375	   6.8906	  0.0000	 
  4.5000	   5.6250	  0.0000	 
  4.5000	   5.7500	  0.0000	 
  4.5000	   5.8750	  0.0000	 
  4.5000	   6.0000	  0.0000	 
  4.5000	   6.1250	  0.0000	 
  4.5000	   6.2500	  0.0000	 
  4.5000	   6.3750	  0.0000	 
  0.0000	   0.0000	  0.0000	 
  0.0000	  12.0000	  0.0000	 
  0.5625	   0.6875	  0.0000	 
  0.5625	  11.3125	  0.0000	 
  1.1250	   1.3750	  0.0000	 
  1.1250	  10.6250	  0.0000	 
  1.6875	   2.0625	  0.0000	 
  1.6875	   9.9375	  0.0000	 
  2.2500	   2.7500	  0.0000	 
  2.2500	   9.2500	  0.0000	 
  2.8125	   3.4375	  0.0000	 
  2.8125	   8.5625	  0.0000	 
  3.3750	   4.1250	  0.0000	 
  3.3750	   7.8750	  0.0000	 
  3.9375	   4.8125	  0.0000	 
  3.9375	   7.1875	  0.0000	 
  4.5000	   5.5000	  0.0000	 
  4.5000	   6.5000	  0.0000	 
  2.8000	   0.0000	  0.0000	 
  2.8000	  12.0000	  0.0000	 
  3.1375	   0.6875	  0.0000	 
  3.1375	  11.3125	  0.0000	 
  3.4750	   1.3750	  0.0000	 
  3.4750	  10.6250	  0.0000	 
  3.8125	   2.0625	  0.0000	 
  3.8125	   9.9375	  0.0000	 
  4.1500	   2.7500	  0.0000	 
  4.1500	   9.2500	  0.0000	 
  4.4875	   3.4375	  0.0000	 
  4.4875	   8.5625	  0.0000	 
  4.8250	   4.1250	  0.0000	 
  4.8250	   7.8750	  0.0000	 
  5.1625	   4.8125	  0.0000	 
  5.1625	   7.1875	  0.0000	 
  5.5000	   5.5000	  0.0000	 
  5.5000	   6.5000	  0.0000	 
  5.6000	   0.0000	  0.0000	 
  5.6000	  12.0000	  0.0000	 
  5.7125	   0.6875	  0.0000	 
  5.7125	  11.3125	  0.0000	 
  5.8250	   1.3750	  0.0000	 
  5.8250	  10.6250	  0.0000	 
  5.9375	   2.0625	  0.0000	 
  5.9375	   9.9375	  0.0000	 
  6.0500	   2.7500	  0.0000	 
  6.0500	   9.2500	  0.0000	 
  6.1625	   3.4375	  0.0000	 
  6.1625	   8.5625	  0.0000	 
  6.2750	   4.1250	  0.0000	 
  6.2750	   7.8750	  0.0000	 
  6.3875	   4.8125	  0.0000	 
  6.3875	   7.1875	  0.0000	 
  6.5000	   5.5000	  0.0000	 
  6.5000	   6.5000	  0.0000	 
  8.4000	   0.0000	  0.0000	 
  8.4000	  12.0000	  0.0000	 
  8.2875	   0.6875	  0.0000	 
  8.2875	  11.3125	  0.0000	 
  8.1750	   1.3750	  0.0000	 
  8.1750	  10.6250	  0.0000	 
  8.0625	   2.0625	  0.0000	 
  8.0625	   9.9375	  0.0000	 
  7.9500	   2.7500	  0.0000	 
  7.9500	   9.2500	  0.0000	 
  7.8375	   3.4375	  0.0000	 
  7.8375	   8.5625	  0.0000	 
  7.7250	   4.1250	  0.0000	 
  7.7250	   7.8750	  0.0000	 
  7.6125	   4.8125	  0.0000	 
  7.6125	   7.1875	  0.0000	 
  7.5000	   5.5000	  0.0000	 
  7.5000	   6.5000	  0.0000	 
 11.2000	   0.0000	  0.0000	 
 11.2000	  12.0000	  0.0000	 
 10.8625	   0.6875	  0.0000	 
 10.8625	  11.3125	  0.0000	 
 10.5250	   1.3750	  0.0000	 
 10.5250	  10.6250	  0.0000	 
 10.1875	   2.0625	  0.0000	 
 10.1875	   9.9375	  0.0000	 
  9.8500	   2.7500	  0.0000	 
  9.8500	   9.2500	  0.0000	 
  9.5125	   3.4375	  0.0000	 
  9.5125	   8.5625	  0.0000	 
  9.1750	   4.1250	  0.0000	 
  9.1750	   7.8750	  0.0000	 
  8.8375	   4.8125	  0.0000	 
  8.8375	   7.1875	  0.0000	 
  8.5000	   5.5000	  0.0000	 
  8.5000	   6.5000	  0.0000	 
 14.0000	   0.0000	  0.0000	 
 14.0000	  12.0000	  0.0000	 
 13.4375	   0.6875	  0.0000	 
 13.4375	  11.3125	  0.0000	 
 12.8750	   1.3750	  0.0000	 
 12.8750	  10.6250	  0.0000	 
 12.3125	   2.0625	  0.0000	 
 12.3125	   9.9375	  0.0000	 
 11.7500	   2.7500	  0.0000	 
 11.7500	   9.2500	  0.0000	 
 11.1875	   3.4375	  0.0000	 
 11.1875	   8.5625	  0.0000	 
 10.6250	   4.1250	  0.0000	 
 10.6250	   7.8750	  0.0000	 
 10.0625	   4.8125	  0.0000	 
 10.0625	   7.1875	  0.0000	 
  9.5000	   5.5000	  0.0000	 
  9.5000	   6.5000	  0.0000	 
  5.5000	   5.5000	  0.0000	 
  5.5000	   6.5000	  0.0000	 
  5.5000	   5.6567	  0.0000	 
  5.5000	   6.3433	  0.0000	 
  5.5000	   5.8133	  0.0000	 
  5.5000	   6.1867	  0.0000	 
  6.5000	   5.5000	  0.0000	 
  6.5000	   6.5000	  0.0000	 
  6.5000	   5.6567	  0.0000	 
  6.5000	   6.3433	  0.0000	 
  6.5000	   5.8133	  0.0000	 
  6.5000	   6.1867	  0.0000	 
  7.5000	   5.5000	  0.0000	 
  7.5000	   6.5000	  0.0000	 
  7.5000	   5.6567	  0.0000	 
  7.5000	   6.3433	  0.0000	 
  7.5000	   5.8133	  0.0000	 
  7.5000	   6.1867	  0.0000	 
  8.5000	   5.5000	  0.0000	 
  8.5000	   6.5000	  0.0000	 
  8.5000	   5.6567	  0.0000	 
  8.5000	   6.3433	  0.0000	 
  8.5000	   5.8133	  0.0000	 
  8.5000	   6.1867	  0.0000	 
  9.5000	   5.5000	  0.0000	 
  9.5000	   6.5000	  0.0000	 
  9.5000	   5.6567	  0.0000	 
  9.5000	   6.3433	  0.0000	 
  9.5000	   5.8133	  0.0000	 
  9.5000	   6.1867	  0.0000	 
  5.5000	   5.9700	  0.0000	 
  5.5000	   6.0000	  0.0000	 
  5.5000	   6.0300	  0.0000	 
  6.5000	   5.9700	  0.0000	 
  6.5000	   6.0000	  0.0000	 
  6.5000	   6.0300	  0.0000	 
  7.5000	   5.9700	  0.0000	 
  7.5000	   6.0000	  0.0000	 
  7.5000	   6.0300	  0.0000	 
  8.5000	   5.9700	  0.0000	 
  8.5000	   6.0000	  0.0000	 
  8.5000	   6.0300	  0.0000	 
  9.5000	   5.9700	  0.0000	 
  9.5000	   6.0000	  0.0000	 
  9.5000	   6.0300	  0.0000	 
 10.0625	   5.1371	  0.0000	 
 10.0625	   6.8629	  0.0000	 
 10.0625	   5.4617	  0.0000	 
 10.0625	   6.5383	  0.0000	 
 10.0625	   5.7862	  0.0000	 
 10.0625	   6.2138	  0.0000	 
 10.6250	   4.6175	  0.0000	 
 10.6250	   7.3825	  0.0000	 
 10.6250	   5.1100	  0.0000	 
 10.6250	   6.8900	  0.0000	 
 10.6250	   5.6025	  0.0000	 
 10.6250	   6.3975	  0.0000	 
 11.1875	   4.0979	  0.0000	 
 11.1875	   7.9021	  0.0000	 
 11.1875	   4.7583	  0.0000	 
 11.1875	   7.2417	  0.0000	 
 11.1875	   5.4188	  0.0000	 
 11.1875	   6.5812	  0.0000	 
 11.7500	   3.5783	  0.0000	 
 11.7500	   8.4217	  0.0000	 
 11.7500	   4.4067	  0.0000	 
 11.7500	   7.5933	  0.0000	 
 11.7500	   5.2350	  0.0000	 
 11.7500	   6.7650	  0.0000	 
 12.3125	   3.0587	  0.0000	 
 12.3125	   8.9413	  0.0000	 
 12.3125	   4.0550	  0.0000	 
 12.3125	   7.9450	  0.0000	 
 12.3125	   5.0512	  0.0000	 
 12.3125	   6.9488	  0.0000	 
 12.8750	   2.5392	  0.0000	 
 12.8750	   9.4608	  0.0000	 
 12.8750	   3.7033	  0.0000	 
 12.8750	   8.2967	  0.0000	 
 12.8750	   4.8675	  0.0000	 
 12.8750	   7.1325	  0.0000	 
 13.4375	   2.0196	  0.0000	 
 13.4375	   9.9804	  0.0000	 
 13.4375	   3.3517	  0.0000	 
 13.4375	   8.6483	  0.0000	 
 13.4375	   4.6837	  0.0000	 
 13.4375	   7.3163	  0.0000	 
 14.0000	   1.5000	  0.0000	 
 14.0000	  10.5000	  0.0000	 
 14.0000	   3.0000	  0.0000	 
 14.0000	   9.0000	  0.0000	 
 14.0000	   4.5000	  0.0000	 
 14.0000	   7.5000	  0.0000	 
 10.0625	   6.0000	  0.0000	 
 10.6250	   6.0000	  0.0000	 
 11.1875	   6.0000	  0.0000	 
 11.7500	   6.0000	  0.0000	 
 12.3125	   6.0000	  0.0000	 
 12.8750	   6.0000	  0.0000	 
 13.4375	   6.0000	  0.0000	 
 14.0000	   6.0000	  0.0000	 
 15.8333	   0.0000	  0.0000	 
 15.8333	   1.5000	  0.0000	 
 15.8333	   3.0000	  0.0000	 
 15.8333	   4.5000	  0.0000	 
 15.8333	   6.0000	  0.0000	 
 15.8333	   7.5000	  0.0000	 
 15.8333	   9.0000	  0.0000	 
 15.8333	  10.5000	  0.0000	 
 15.8333	  12.0000	  0.0000	 
 17.6667	   0.0000	  0.0000	 
 17.6667	   1.5000	  0.0000	 
 17.6667	   3.0000	  0.0000	 
 17.6667	   4.5000	  0.0000	 
 17.6667	   6.0000	  0.0000	 
 17.6667	   7.5000	  0.0000	 
 17.6667	   9.0000	  0.0000	 
 17.6667	  10.5000	  0.0000	 
 17.6667	  12.0000	  0.0000	 
 19.5000	   0.0000	  0.0000	 
 19.5000	   1.5000	  0.0000	 
 19.5000	   3.0000	  0.0000	 
 19.5000	   4.5000	  0.0000	 
 19.5000	   6.0000	  0.0000	 
 19.5000	   7.5000	  0.0000	 
 19.5000	   9.0000	  0.0000	 
 19.5000	  10.5000	  0.0000	 
 19.5000	  12.0000	  0.0000	 

CELLS 	     528 	    2112 
       3	       30	      37	       31	
       3	      275	     271	      262	
       3	       34	      41	       74	
       3	        6	      13	       68	
       3	      194	     192	      186	
       3	      182	     188	      180	
       3	        5	      13	        6	
       3	       23	      22	       29	
       3	       91	      93	       75	
       3	       20	      13	        5	
       3	       67	      65	       81	
       3	       70	      84	       68	
       3	        0	      63	       65	
       3	       26	      25	       33	
       3	       20	       5	       12	
       3	       55	      47	       54	
       3	       20	      70	       13	
       3	       73	      28	       71	
       3	      102	     104	      122	
       3	      127	     129	      109	
       3	      140	     160	      138	
       3	      241	     235	      243	
       3	      277	     261	      263	
[...]
POINT_DATA 	     299 
VECTORS U float 
 50.0000	   0.0000	   0.0000	
 50.0000	   0.0000	   0.0000	
 50.0000	  -0.0000	   0.0000	
 50.0000	   0.0000	   0.0000	
 50.0000	  -0.0000	   0.0000	
 50.0000	   0.0000	   0.0000	
 50.0000	   0.0000	   0.0000	
 48.6713	  15.7197	   0.0000	
 51.2499	  14.6819	   0.0000	
 47.9999	  21.4933	   0.0000	
 44.0112	  37.4848	   0.0000	
 54.4482	  45.8379	   0.0000	
 48.0103	  28.5403	   0.0000	
 51.8309	  41.4680	   0.0000	
 50.8271	  36.4257	   0.0000	
 47.3006	  38.8071	   0.0000	
 38.1264	  61.7805	   0.0000	
 43.0655	  69.9844	   0.0000	
 50.2963	  69.3157	   0.0000	
 58.5332	  74.8207	   0.0000	
 39.8709	  71.3706	   0.0000	
 49.5519	  60.9800	   0.0000	
 34.2600	  70.4476	   0.0000	
 32.4084	  78.8683	   0.0000	
 38.0978	  86.7767	   0.0000	
 52.8437	  94.5028	   0.0000	
 50.6191	  90.5465	   0.0000	
 45.7547	 111.3967	   0.0000	
 36.6060	  66.7005	   0.0000	
 29.6806	  69.2021	   0.0000	
 29.8295	  74.8267	   0.0000	
 39.2069	  77.1318	   0.0000	
 40.7418	  78.5363	   0.0000	
 56.6261	  89.5453	   0.0000	
 36.6096	  87.9523	   0.0000	
 31.1992	  77.3006	   0.0000	
 25.6827	  76.3383	   0.0000	
 28.0730	  75.8947	   0.0000	
 42.6736	  70.9287	   0.0000	
 34.0132	  73.7397	   0.0000	
 41.4019	  94.8028	   0.0000	
 52.3837	 107.6654	   0.0000	
 28.0796	  71.3517	   0.0000	
 24.9490	  73.7667	   0.0000	
 38.2885	  78.7995	   0.0000	
 11.3877	 102.0684	   0.0000	
 24.1472	 130.7804	   0.0000	
 13.4429	 146.7382	   0.0000	
 38.1079	 136.4446	   0.0000	
 10.5169	  51.4304	   0.0000	
 21.8114	  64.1905	   0.0000	
 -1.3753	  75.4906	   0.0000	
  3.2503	  78.3672	   0.0000	
 -2.2311	  78.9467	   0.0000	
  3.0812	  81.7851	   0.0000	
 26.9243	  79.9454	   0.0000	
  0.0000	  -0.0000	   0.0000	
 -0.0000	  -0.0000	   0.0000	
 -0.0000	  -0.0000	   0.0000	
 -0.0000	   0.0000	   0.0000	
  0.0000	   0.0000	   0.0000	
 -0.0000	   0.0000	   0.0000	
  0.0000	  -0.0000	   0.0000	
 50.0000	  50.0000	   0.0000	
 50.0000	   0.0000	   0.0000	
 68.5896	  53.6724	   0.0000	
 54.4202	  37.1670	   0.0000	
 86.2750	  58.7153	   0.0000	
 46.3640	  67.3415	   0.0000	
 63.5663	  71.5472	   0.0000	
 67.4802	  83.8448	   0.0000	
 60.1783	  70.4132	   0.0000	
 66.6231	  78.8732	   0.0000	
 39.4472	  76.8697	   0.0000	
 55.5065	  70.7633	   0.0000	
 28.0450	  65.9447	   0.0000	
 95.2161	  88.7241	   0.0000	
 20.6919	  50.4365	   0.0000	
 64.0058	  63.2461	   0.0000	
 -0.0000	  -0.0000	   0.0000	
 -0.0000	   0.0000	   0.0000	
 34.6148	  50.0000	   0.0000	
 77.3072	 139.6076	   0.0000	
 65.6410	  40.6960	   0.0000	
 15.1438	 110.1231	   0.0000	
 50.2954	  45.5853	   0.0000	
 31.5380	 100.6201	   0.0000	
 49.0455	  46.9149	   0.0000	
 39.9290	  92.0835	   0.0000	
 42.0963	  43.3559	   0.0000	
 37.6986	  80.9218	   0.0000	
 39.7211	  35.2514	   0.0000	
 56.2124	  61.2310	   0.0000	
 21.2198	  29.4879	   0.0000	
 81.8572	  41.1840	   0.0000	
 65.6060	   0.7207	   0.0000	
 10.0255	  -2.4623	   0.0000	
 -0.0000	   0.0000	   0.0000	
  0.0000	  -0.0000	   0.0000	
 74.1589	  50.0000	   0.0000	
-14.2522	  71.8568	   0.0000	
 49.4733	  55.8367	   0.0000	
 16.3397	  76.1772	   0.0000	
 49.0296	  57.1497	   0.0000	
 10.3082	  69.9819	   0.0000	
 52.5541	  58.1349	   0.0000	
 22.7268	  62.8095	   0.0000	
 58.6180	  58.1004	   0.0000	
  5.3861	  54.3731	   0.0000	
 55.0138	  58.6096	   0.0000	
 20.1142	  45.3018	   0.0000	
 67.1716	  53.0444	   0.0000	
 16.0074	  22.8106	   0.0000	
 86.2076	  59.7389	   0.0000	
  3.5422	  31.2807	   0.0000	
 28.4454	  49.0129	   0.0000	
  4.7682	  39.6320	   0.0000	
 51.7572	  50.0000	   0.0000	
  8.8797	  58.9732	   0.0000	
 49.8911	  50.1967	   0.0000	
  8.1411	  58.2499	   0.0000	
 46.5307	  50.1662	   0.0000	
  5.7200	  58.0801	   0.0000	
 46.1489	  50.8782	   0.0000	
  4.9059	  59.9136	   0.0000	
 51.7617	  54.8795	   0.0000	
 12.2135	  62.5513	   0.0000	
 42.6888	  57.2137	   0.0000	
 11.3317	  65.3601	   0.0000	
 53.3888	  64.5105	   0.0000	
 -6.5987	  66.6406	   0.0000	
 64.4792	  76.1367	   0.0000	
 23.3328	  62.9534	   0.0000	
 45.6612	  85.9825	   0.0000	
 14.2041	  70.9834	   0.0000	
 48.5493	  50.0000	   0.0000	
  0.3427	  47.0212	   0.0000	
 46.2355	  50.6673	   0.0000	
  6.5706	  46.5603	   0.0000	
 46.5329	  52.2153	   0.0000	
  5.9398	  48.2195	   0.0000	
 43.3992	  51.7343	   0.0000	
  9.1899	  50.4528	   0.0000	
 42.4289	  53.1901	   0.0000	
 14.0318	  52.3731	   0.0000	
 40.3683	  55.0072	   0.0000	
 16.4656	  52.4558	   0.0000	
 42.1946	  56.3598	   0.0000	
  1.5094	  59.3953	   0.0000	
 50.6679	  64.4382	   0.0000	
 22.0113	  67.7324	   0.0000	
 34.7363	  73.0243	   0.0000	
 29.5965	  64.6448	   0.0000	
 63.8915	  50.0000	   0.0000	
  1.0007	  31.3161	   0.0000	
 56.5003	  46.3665	   0.0000	
  4.5201	  34.7621	   0.0000	
 46.6186	  41.6890	   0.0000	
  8.5106	  37.9915	   0.0000	
 46.5588	  44.1785	   0.0000	
  8.2619	  41.3780	   0.0000	
 43.7120	  46.0161	   0.0000	
 13.7962	  43.2166	   0.0000	
 41.4808	  47.0851	   0.0000	
 17.0227	  45.7367	   0.0000	
 40.9507	  49.3769	   0.0000	
 14.5440	  51.0642	   0.0000	
 41.1464	  52.3029	   0.0000	
 33.5795	  59.9798	   0.0000	
 27.2902	  62.3244	   0.0000	
 27.2445	  69.8940	   0.0000	
  0.0000	   0.0000	   0.0000	
  0.0000	   0.0000	   0.0000	
  0.0000	  -0.0000	   0.0000	
  0.0000	   0.0000	   0.0000	
  0.0000	  -0.0000	   0.0000	
 -0.0000	  -0.0000	   0.0000	
  0.0000	   0.0000	   0.0000	
  0.0000	   0.0000	   0.0000	
 -2.2784	  45.3216	   0.0000	
 -8.9290	  40.5672	   0.0000	
 13.5036	  40.4318	   0.0000	
  7.3427	  39.4868	   0.0000	
  0.0000	   0.0000	   0.0000	
  0.0000	   0.0000	   0.0000	
 40.7299	  85.5487	   0.0000	
  9.1044	  75.8238	   0.0000	
 13.5389	  83.5623	   0.0000	
 12.9988	  79.3855	   0.0000	
  0.0000	   0.0000	   0.0000	
  0.0000	   0.0000	   0.0000	
 29.3204	  75.9143	   0.0000	
 34.1027	  67.9872	   0.0000	
 27.4087	  75.9600	   0.0000	
 35.5793	  68.4827	   0.0000	
  0.0000	   0.0000	   0.0000	
  0.0000	   0.0000	   0.0000	
 21.4545	  64.3657	   0.0000	
 33.5213	  69.0798	   0.0000	
 31.8192	  63.1751	   0.0000	
 33.7459	  66.6504	   0.0000	
 -0.0000	   0.0000	   0.0000	
 -0.0000	  -0.0000	   0.0000	
  0.0000	  -0.0000	   0.0000	
 -3.2518	  41.1214	   0.0000	
  1.6822	  40.4781	   0.0000	
 -2.1996	  41.0553	   0.0000	
  2.6987	  82.7168	   0.0000	
  7.8583	  81.7483	   0.0000	
  1.3676	  81.9600	   0.0000	
 23.3907	  73.1947	   0.0000	
 33.5139	  72.3460	   0.0000	
 21.2080	  72.3019	   0.0000	
 23.4148	  66.0033	   0.0000	
 34.0916	  64.3422	   0.0000	
 30.5047	  66.6074	   0.0000	
 34.4727	  53.9194	   0.0000	
 27.4864	  56.7858	   0.0000	
 24.3163	  53.6860	   0.0000	
 23.4628	  54.3743	   0.0000	
 27.5867	  52.5776	   0.0000	
 28.3600	  51.1820	   0.0000	
 41.2605	  51.2787	   0.0000	
 29.5575	  54.1420	   0.0000	
 34.1171	  53.2090	   0.0000	
 23.5345	  49.5881	   0.0000	
 26.3329	  50.9102	   0.0000	
 24.1665	  51.4473	   0.0000	
 38.3578	  50.1536	   0.0000	
 18.6218	  50.2441	   0.0000	
 37.2185	  52.9096	   0.0000	
 26.1944	  46.1403	   0.0000	
 30.5938	  53.9593	   0.0000	
 25.0151	  48.9776	   0.0000	
 39.1362	  47.5561	   0.0000	
 19.9794	  45.0702	   0.0000	
 36.9917	  47.7718	   0.0000	
 19.9237	  47.2081	   0.0000	
 32.1395	  49.4609	   0.0000	
 27.5362	  44.9746	   0.0000	
 41.2395	  44.7607	   0.0000	
 17.9228	  43.5650	   0.0000	
 38.0566	  44.2716	   0.0000	
 21.2295	  42.6898	   0.0000	
 32.3629	  45.1486	   0.0000	
 24.9533	  46.7030	   0.0000	
 43.3741	  44.5442	   0.0000	
 13.8572	  40.4077	   0.0000	
 39.5206	  43.8654	   0.0000	
 20.0658	  39.0408	   0.0000	
 32.9653	  44.7569	   0.0000	
 25.8868	  41.2414	   0.0000	
 43.9145	  42.1663	   0.0000	
 11.2039	  36.4209	   0.0000	
 41.1185	  41.6777	   0.0000	
 18.4429	  36.9812	   0.0000	
 33.5878	  42.1177	   0.0000	
 26.2644	  38.6179	   0.0000	
 48.9295	  47.4158	   0.0000	
  9.5822	  31.1937	   0.0000	
 42.9495	  40.3454	   0.0000	
 16.6995	  32.1639	   0.0000	
 35.3675	  38.7570	   0.0000	
 25.5485	  32.5472	   0.0000	
 26.6009	  51.5010	   0.0000	
 29.8150	  50.5930	   0.0000	
 29.2377	  51.1762	   0.0000	
 30.8910	  47.3165	   0.0000	
 32.6499	  45.8060	   0.0000	
 31.9092	  43.6825	   0.0000	
 32.7050	  40.8100	   0.0000	
 33.4507	  32.5782	   0.0000	
 67.0949	  50.0000	   0.0000	
 58.2303	  41.9880	   0.0000	
 46.3704	  37.4082	   0.0000	
 44.4577	  27.9115	   0.0000	
 34.1367	  25.8650	   0.0000	
 25.9818	  24.9079	   0.0000	
 17.5413	  24.0335	   0.0000	
  9.3877	  24.2265	   0.0000	
  0.4507	  24.4057	   0.0000	
 77.4140	  50.0000	   0.0000	
 67.0863	  41.3051	   0.0000	
 62.2471	  24.9172	   0.0000	
 49.6318	  17.3452	   0.0000	
 36.8803	  13.2242	   0.0000	
 27.9369	  10.3956	   0.0000	
 18.0955	   9.0764	   0.0000	
  9.5279	   8.3870	   0.0000	
  0.4130	   8.3406	   0.0000	
 89.1312	  50.0000	   0.0000	
 89.7027	  30.6808	   0.0000	
 74.2612	  19.5325	   0.0000	
 56.5444	  13.0669	   0.0000	
 41.6521	   8.4085	   0.0000	
 30.2452	   6.1973	   0.0000	
 19.3728	   4.9454	   0.0000	
  9.7480	   4.6341	   0.0000	
  2.6209	   2.8127	   0.0000	
