# vtk DataFile Version 3.0 
Results 
ASCII 
DATASET UNSTRUCTURED_GRID 
POINTS 	    1451 float 
  0.0000	   0.6000	  0.0000	 
  0.0000	   1.2000	  0.0000	 
  0.0000	   1.8000	  0.0000	 
  0.0000	   2.4000	  0.0000	 
  0.0000	   3.0000	  0.0000	 
  0.0000	   3.6000	  0.0000	 
  0.0000	   4.2000	  0.0000	 
  0.0000	   4.8000	  0.0000	 
  0.0000	   5.4000	  0.0000	 
  0.0000	   6.0000	  0.0000	 
  0.0000	   6.6000	  0.0000	 
  0.0000	   7.2000	  0.0000	 
  0.0000	   7.8000	  0.0000	 
  0.0000	   8.4000	  0.0000	 
  0.0000	   9.0000	  0.0000	 
  0.0000	   9.6000	  0.0000	 
  0.0000	  10.2000	  0.0000	 
  0.0000	  10.8000	  0.0000	 
  0.0000	  11.4000	  0.0000	 
  0.2250	   0.8475	  0.0000	 
  0.2250	   1.4200	  0.0000	 
  0.2250	   1.9925	  0.0000	 
  0.2250	   2.5650	  0.0000	 
  0.2250	   3.1375	  0.0000	 
  0.2250	   3.7100	  0.0000	 
  0.2250	   4.2825	  0.0000	 
  0.2250	   4.8550	  0.0000	 
  0.2250	   5.4275	  0.0000	 
  0.2250	   6.0000	  0.0000	 
  0.2250	   6.5725	  0.0000	 
  0.2250	   7.1450	  0.0000	 
  0.2250	   7.7175	  0.0000	 
  0.2250	   8.2900	  0.0000	 
  0.2250	   8.8625	  0.0000	 
  0.2250	   9.4350	  0.0000	 
  0.2250	  10.0075	  0.0000	 
  0.2250	  10.5800	  0.0000	 
  0.2250	  11.1525	  0.0000	 
  0.4500	   1.0950	  0.0000	 
  0.4500	   1.6400	  0.0000	 
  0.4500	   2.1850	  0.0000	 
  0.4500	   2.7300	  0.0000	 
  0.4500	   3.2750	  0.0000	 
  0.4500	   3.8200	  0.0000	 
  0.4500	   4.3650	  0.0000	 
  0.4500	   4.9100	  0.0000	 
  0.4500	   5.4550	  0.0000	 
  0.4500	   6.0000	  0.0000	 
  0.4500	   6.5450	  0.0000	 
  0.4500	   7.0900	  0.0000	 
  0.4500	   7.6350	  0.0000	 
  0.4500	   8.1800	  0.0000	 
  0.4500	   8.7250	  0.0000	 
  0.4500	   9.2700	  0.0000	 
  0.4500	   9.8150	  0.0000	 
  0.4500	  10.3600	  0.0000	 
  0.4500	  10.9050	  0.0000	 
  0.6750	   1.3425	  0.0000	 
  0.6750	   1.8600	  0.0000	 
  0.6750	   2.3775	  0.0000	 
  0.6750	   2.8950	  0.0000	 
  0.6750	   3.4125	  0.0000	 
  0.6750	   3.9300	  0.0000	 
  0.6750	   4.4475	  0.0000	 
  0.6750	   4.9650	  0.0000	 
  0.6750	   5.4825	  0.0000	 
  0.6750	   6.0000	  0.0000	 
  0.6750	   6.5175	  0.0000	 
  0.6750	   7.0350	  0.0000	 
  0.6750	   7.5525	  0.0000	 
  0.6750	   8.0700	  0.0000	 
  0.6750	   8.5875	  0.0000	 
  0.6750	   9.1050	  0.0000	 
  0.6750	   9.6225	  0.0000	 
  0.6750	  10.1400	  0.0000	 
  0.6750	  10.6575	  0.0000	 
  0.9000	   1.5900	  0.0000	 
  0.9000	   2.0800	  0.0000	 
  0.9000	   2.5700	  0.0000	 
  0.9000	   3.0600	  0.0000	 
  0.9000	   3.5500	  0.0000	 
  0.9000	   4.0400	  0.0000	 
  0.9000	   4.5300	  0.0000	 
  0.9000	   5.0200	  0.0000	 
  0.9000	   5.5100	  0.0000	 
  0.9000	   6.0000	  0.0000	 
  0.9000	   6.4900	  0.0000	 
  0.9000	   6.9800	  0.0000	 
  0.9000	   7.4700	  0.0000	 
  0.9000	   7.9600	  0.0000	 
  0.9000	   8.4500	  0.0000	 
  0.9000	   8.9400	  0.0000	 
  0.9000	   9.4300	  0.0000	 
  0.9000	   9.9200	  0.0000	 
  0.9000	  10.4100	  0.0000	 
  1.1250	   1.8375	  0.0000	 
  1.1250	   2.3000	  0.0000	 
  1.1250	   2.7625	  0.0000	 
  1.1250	   3.2250	  0.0000	 
  1.1250	   3.6875	  0.0000	 
  1.1250	   4.1500	  0.0000	 
  1.1250	   4.6125	  0.0000	 
  1.1250	   5.0750	  0.0000	 
  1.1250	   5.5375	  0.0000	 
  1.1250	   6.0000	  0.0000	 
  1.1250	   6.4625	  0.0000	 
  1.1250	   6.9250	  0.0000	 
  1.1250	   7.3875	  0.0000	 
  1.1250	   7.8500	  0.0000	 
  1.1250	   8.3125	  0.0000	 
  1.1250	   8.7750	  0.0000	 
  1.1250	   9.2375	  0.0000	 
  1.1250	   9.7000	  0.0000	 
  1.1250	  10.1625	  0.0000	 
  1.3500	   2.0850	  0.0000	 
  1.3500	   2.5200	  0.0000	 
  1.3500	   2.9550	  0.0000	 
  1.3500	   3.3900	  0.0000	 
  1.3500	   3.8250	  0.0000	 
  1.3500	   4.2600	  0.0000	 
  1.3500	   4.6950	  0.0000	 
  1.3500	   5.1300	  0.0000	 
  1.3500	   5.5650	  0.0000	 
  1.3500	   6.0000	  0.0000	 
  1.3500	   6.4350	  0.0000	 
  1.3500	   6.8700	  0.0000	 
  1.3500	   7.3050	  0.0000	 
  1.3500	   7.7400	  0.0000	 
  1.3500	   8.1750	  0.0000	 
  1.3500	   8.6100	  0.0000	 
  1.3500	   9.0450	  0.0000	 
  1.3500	   9.4800	  0.0000	 
  1.3500	   9.9150	  0.0000	 
  1.5750	   2.3325	  0.0000	 
  1.5750	   2.7400	  0.0000	 
  1.5750	   3.1475	  0.0000	 
  1.5750	   3.5550	  0.0000	 
  1.5750	   3.9625	  0.0000	 
  1.5750	   4.3700	  0.0000	 
  1.5750	   4.7775	  0.0000	 
  1.5750	   5.1850	  0.0000	 
  1.5750	   5.5925	  0.0000	 
  1.5750	   6.0000	  0.0000	 
  1.5750	   6.4075	  0.0000	 
  1.5750	   6.8150	  0.0000	 
  1.5750	   7.2225	  0.0000	 
  1.5750	   7.6300	  0.0000	 
  1.5750	   8.0375	  0.0000	 
  1.5750	   8.4450	  0.0000	 
  1.5750	   8.8525	  0.0000	 
  1.5750	   9.2600	  0.0000	 
  1.5750	   9.6675	  0.0000	 
  1.8000	   2.5800	  0.0000	 
  1.8000	   2.9600	  0.0000	 
  1.8000	   3.3400	  0.0000	 
  1.8000	   3.7200	  0.0000	 
  1.8000	   4.1000	  0.0000	 
  1.8000	   4.4800	  0.0000	 
  1.8000	   4.8600	  0.0000	 
  1.8000	   5.2400	  0.0000	 
  1.8000	   5.6200	  0.0000	 
  1.8000	   6.0000	  0.0000	 
  1.8000	   6.3800	  0.0000	 
  1.8000	   6.7600	  0.0000	 
  1.8000	   7.1400	  0.0000	 
  1.8000	   7.5200	  0.0000	 
  1.8000	   7.9000	  0.0000	 
  1.8000	   8.2800	  0.0000	 
  1.8000	   8.6600	  0.0000	 
  1.8000	   9.0400	  0.0000	 
  1.8000	   9.4200	  0.0000	 
  2.0250	   2.8275	  0.0000	 
  2.0250	   3.1800	  0.0000	 
  2.0250	   3.5325	  0.0000	 
  2.0250	   3.8850	  0.0000	 
  2.0250	   4.2375	  0.0000	 
  2.0250	   4.5900	  0.0000	 
  2.0250	   4.9425	  0.0000	 
  2.0250	   5.2950	  0.0000	 
  2.0250	   5.6475	  0.0000	 
  2.0250	   6.0000	  0.0000	 
  2.0250	   6.3525	  0.0000	 
  2.0250	   6.7050	  0.0000	 
  2.0250	   7.0575	  0.0000	 
  2.0250	   7.4100	  0.0000	 
  2.0250	   7.7625	  0.0000	 
  2.0250	   8.1150	  0.0000	 
  2.0250	   8.4675	  0.0000	 
  2.0250	   8.8200	  0.0000	 
  2.0250	   9.1725	  0.0000	 
  2.2500	   3.0750	  0.0000	 
  2.2500	   3.4000	  0.0000	 
  2.2500	   3.7250	  0.0000	 
  2.2500	   4.0500	  0.0000	 
  2.2500	   4.3750	  0.0000	 
  2.2500	   4.7000	  0.0000	 
  2.2500	   5.0250	  0.0000	 
  2.2500	   5.3500	  0.0000	 
  2.2500	   5.6750	  0.0000	 
  2.2500	   6.0000	  0.0000	 
  2.2500	   6.3250	  0.0000	 
  2.2500	   6.6500	  0.0000	 
  2.2500	   6.9750	  0.0000	 
  2.2500	   7.3000	  0.0000	 
  2.2500	   7.6250	  0.0000	 
  2.2500	   7.9500	  0.0000	 
  2.2500	   8.2750	  0.0000	 
  2.2500	   8.6000	  0.0000	 
  2.2500	   8.9250	  0.0000	 
  2.4750	   3.3225	  0.0000	 
  2.4750	   3.6200	  0.0000	 
  2.4750	   3.9175	  0.0000	 
  2.4750	   4.2150	  0.0000	 
  2.4750	   4.5125	  0.0000	 
  2.4750	   4.8100	  0.0000	 
  2.4750	   5.1075	  0.0000	 
  2.4750	   5.4050	  0.0000	 
  2.4750	   5.7025	  0.0000	 
  2.4750	   6.0000	  0.0000	 
  2.4750	   6.2975	  0.0000	 
  2.4750	   6.5950	  0.0000	 
  2.4750	   6.8925	  0.0000	 
  2.4750	   7.1900	  0.0000	 
  2.4750	   7.4875	  0.0000	 
  2.4750	   7.7850	  0.0000	 
  2.4750	   8.0825	  0.0000	 
  2.4750	   8.3800	  0.0000	 
  2.4750	   8.6775	  0.0000	 
  2.7000	   3.5700	  0.0000	 
  2.7000	   3.8400	  0.0000	 
  2.7000	   4.1100	  0.0000	 
  2.7000	   4.3800	  0.0000	 
  2.7000	   4.6500	  0.0000	 
  2.7000	   4.9200	  0.0000	 
  2.7000	   5.1900	  0.0000	 
  2.7000	   5.4600	  0.0000	 
  2.7000	   5.7300	  0.0000	 
  2.7000	   6.0000	  0.0000	 
  2.7000	   6.2700	  0.0000	 
  2.7000	   6.5400	  0.0000	 
  2.7000	   6.8100	  0.0000	 
  2.7000	   7.0800	  0.0000	 
  2.7000	   7.3500	  0.0000	 
  2.7000	   7.6200	  0.0000	 
  2.7000	   7.8900	  0.0000	 
  2.7000	   8.1600	  0.0000	 
  2.7000	   8.4300	  0.0000	 
  2.9250	   3.8175	  0.0000	 
  2.9250	   4.0600	  0.0000	 
  2.9250	   4.3025	  0.0000	 
  2.9250	   4.5450	  0.0000	 
  2.9250	   4.7875	  0.0000	 
  2.9250	   5.0300	  0.0000	 
  2.9250	   5.2725	  0.0000	 
  2.9250	   5.5150	  0.0000	 
  2.9250	   5.7575	  0.0000	 
  2.9250	   6.0000	  0.0000	 
  2.9250	   6.2425	  0.0000	 
  2.9250	   6.4850	  0.0000	 
  2.9250	   6.7275	  0.0000	 
  2.9250	   6.9700	  0.0000	 
  2.9250	   7.2125	  0.0000	 
  2.9250	   7.4550	  0.0000	 
  2.9250	   7.6975	  0.0000	 
  2.9250	   7.9400	  0.0000	 
  2.9250	   8.1825	  0.0000	 
  3.1500	   4.0650	  0.0000	 
  3.1500	   4.2800	  0.0000	 
  3.1500	   4.4950	  0.0000	 
  3.1500	   4.7100	  0.0000	 
  3.1500	   4.9250	  0.0000	 
  3.1500	   5.1400	  0.0000	 
  3.1500	   5.3550	  0.0000	 
  3.1500	   5.5700	  0.0000	 
  3.1500	   5.7850	  0.0000	 
  3.1500	   6.0000	  0.0000	 
  3.1500	   6.2150	  0.0000	 
  3.1500	   6.4300	  0.0000	 
  3.1500	   6.6450	  0.0000	 
  3.1500	   6.8600	  0.0000	 
  3.1500	   7.0750	  0.0000	 
  3.1500	   7.2900	  0.0000	 
  3.1500	   7.5050	  0.0000	 
  3.1500	   7.7200	  0.0000	 
  3.1500	   7.9350	  0.0000	 
  3.3750	   4.3125	  0.0000	 
  3.3750	   4.5000	  0.0000	 
  3.3750	   4.6875	  0.0000	 
  3.3750	   4.8750	  0.0000	 
  3.3750	   5.0625	  0.0000	 
  3.3750	   5.2500	  0.0000	 
  3.3750	   5.4375	  0.0000	 
  3.3750	   5.6250	  0.0000	 
  3.3750	   5.8125	  0.0000	 
  3.3750	   6.0000	  0.0000	 
  3.3750	   6.1875	  0.0000	 
  3.3750	   6.3750	  0.0000	 
  3.3750	   6.5625	  0.0000	 
  3.3750	   6.7500	  0.0000	 
  3.3750	   6.9375	  0.0000	 
  3.3750	   7.1250	  0.0000	 
  3.3750	   7.3125	  0.0000	 
  3.3750	   7.5000	  0.0000	 
  3.3750	   7.6875	  0.0000	 
  3.6000	   4.5600	  0.0000	 
  3.6000	   4.7200	  0.0000	 
  3.6000	   4.8800	  0.0000	 
  3.6000	   5.0400	  0.0000	 
  3.6000	   5.2000	  0.0000	 
  3.6000	   5.3600	  0.0000	 
  3.6000	   5.5200	  0.0000	 
  3.6000	   5.6800	  0.0000	 
  3.6000	   5.8400	  0.0000	 
  3.6000	   6.0000	  0.0000	 
  3.6000	   6.1600	  0.0000	 
  3.6000	   6.3200	  0.0000	 
  3.6000	   6.4800	  0.0000	 
  3.6000	   6.6400	  0.0000	 
  3.6000	   6.8000	  0.0000	 
  3.6000	   6.9600	  0.0000	 
  3.6000	   7.1200	  0.0000	 
  3.6000	   7.2800	  0.0000	 
  3.6000	   7.4400	  0.0000	 
  3.8250	   4.8075	  0.0000	 
  3.8250	   4.9400	  0.0000	 
  3.8250	   5.0725	  0.0000	 
  3.8250	   5.2050	  0.0000	 
  3.8250	   5.3375	  0.0000	 
  3.8250	   5.4700	  0.0000	 
  3.8250	   5.6025	  0.0000	 
[...]
POINT_DATA 	    1451 
VECTORS U float 
 50.0000	   0.0000	   0.0000	
 50.0000	   0.0000	   0.0000	
 50.0000	   0.0000	   0.0000	
 50.0000	   0.0000	   0.0000	
 50.0000	  -0.0000	   0.0000	
 50.0000	  -0.0000	   0.0000	
 50.0000	   0.0000	   0.0000	
 50.0000	  -0.0000	   0.0000	
 50.0000	  -0.0000	   0.0000	
 50.0000	   0.0000	   0.0000	
 50.0000	  -0.0000	   0.0000	
 50.0000	  -0.0000	   0.0000	
 50.0000	   0.0000	   0.0000	
 50.0000	   0.0000	   0.0000	
 50.0000	  -0.0000	   0.0000	
 50.0000	  -0.0000	   0.0000	
 50.0000	   0.0000	   0.0000	
 50.0000	   0.0000	   0.0000	
 50.0000	  -0.0000	   0.0000	
 76.6613	 141.7237	   0.0000	
 35.3966	 -23.6380	   0.0000	
 67.3091	  53.1429	   0.0000	
 34.5587	  23.1142	   0.0000	
 59.8260	  32.3175	   0.0000	
 44.8952	  45.8040	   0.0000	
 47.5061	  67.8000	   0.0000	
 49.4967	  76.6796	   0.0000	
 49.3647	  79.2274	   0.0000	
 48.5660	  84.6978	   0.0000	
 50.6284	  86.7661	   0.0000	
 50.1188	  84.0620	   0.0000	
 52.3993	  79.6151	   0.0000	
 53.6133	  56.9390	   0.0000	
 47.9676	  43.9760	   0.0000	
 50.8288	  42.0473	   0.0000	
 49.5770	  40.3471	   0.0000	
 48.2526	  34.5344	   0.0000	
 50.5817	  34.0320	   0.0000	
159.4248	  43.1495	   0.0000	
-21.2228	  81.5561	   0.0000	
 90.5154	  54.4762	   0.0000	
 31.9092	  59.0616	   0.0000	
 47.7269	  69.8495	   0.0000	
 35.2006	  67.0284	   0.0000	
 45.5849	  64.8560	   0.0000	
 47.3140	  67.1414	   0.0000	
 48.2137	  68.7870	   0.0000	
 48.1945	  69.1576	   0.0000	
 48.4578	  70.2583	   0.0000	
 51.5872	  75.6464	   0.0000	
 51.3313	  76.6773	   0.0000	
 64.9525	  83.0196	   0.0000	
 55.4103	  88.7537	   0.0000	
 51.8158	  78.0215	   0.0000	
 52.4257	  74.9550	   0.0000	
 54.0072	  65.2160	   0.0000	
 53.4087	  66.8865	   0.0000	
 32.5067	 113.7565	   0.0000	
 51.9623	  38.7846	   0.0000	
 57.0179	  83.9160	   0.0000	
 40.4723	  73.4926	   0.0000	
 46.0591	  73.1099	   0.0000	
 40.4312	  64.7623	   0.0000	
 46.2222	  64.1597	   0.0000	
 46.6350	  67.1024	   0.0000	
 47.2856	  70.4399	   0.0000	
 47.4702	  73.0940	   0.0000	
 48.2645	  74.8903	   0.0000	
 49.8624	  75.1022	   0.0000	
 49.3132	  77.7273	   0.0000	
 58.5476	  80.8628	   0.0000	
 50.6253	  91.9653	   0.0000	
 57.1844	 100.2817	   0.0000	
 51.2258	  98.7639	   0.0000	
 59.7883	  84.3620	   0.0000	
 41.6676	  88.3344	   0.0000	
 37.6155	  62.1956	   0.0000	
 44.0439	  65.0770	   0.0000	
 48.2137	  80.7606	   0.0000	
 45.8029	  65.6889	   0.0000	
 48.0716	  67.3066	   0.0000	
 39.4576	  65.0236	   0.0000	
 46.1680	  66.7661	   0.0000	
 45.0617	  68.7199	   0.0000	
 46.3030	  70.7420	   0.0000	
 46.7415	  72.7475	   0.0000	
 46.8364	  74.2163	   0.0000	
 50.0016	  77.0301	   0.0000	
 46.8318	  78.4294	   0.0000	
 57.4036	  80.2387	   0.0000	
 48.2010	  88.1513	   0.0000	
 52.1956	  91.6562	   0.0000	
 49.9020	 100.9353	   0.0000	
 64.3050	  99.3049	   0.0000	
 51.4360	  90.3298	   0.0000	
 47.5123	  65.5588	   0.0000	
 47.6108	  56.4901	   0.0000	
 47.7686	  66.5118	   0.0000	
 47.7068	  63.7009	   0.0000	
 45.9887	  65.3652	   0.0000	
 41.1865	  64.8076	   0.0000	
 44.8214	  66.5312	   0.0000	
 44.4064	  68.7337	   0.0000	
 45.1805	  71.0352	   0.0000	
 45.9031	  73.2312	   0.0000	
 46.0157	  74.8190	   0.0000	
 48.8047	  76.3262	   0.0000	
 46.5099	  78.5263	   0.0000	
 54.1225	  78.0316	   0.0000	
 47.6332	  84.4449	   0.0000	
 47.9693	  84.7491	   0.0000	
 49.2745	  89.9831	   0.0000	
 55.6574	  91.9159	   0.0000	
 68.8947	 102.1854	   0.0000	
 48.0607	  64.2104	   0.0000	
 42.3085	  48.2267	   0.0000	
 48.2717	  59.4090	   0.0000	
 44.0639	  63.2946	   0.0000	
 44.2825	  66.7183	   0.0000	
 41.0945	  65.1814	   0.0000	
 43.9749	  67.5338	   0.0000	
 43.2213	  69.4063	   0.0000	
 44.1925	  71.4537	   0.0000	
 45.0735	  73.5487	   0.0000	
 44.7697	  75.0302	   0.0000	
 48.4968	  77.2269	   0.0000	
 44.6383	  78.4410	   0.0000	
 53.4740	  79.5531	   0.0000	
 46.2861	  84.0656	   0.0000	
 49.7304	  82.4963	   0.0000	
 47.9012	  82.2056	   0.0000	
 50.0144	  77.9017	   0.0000	
 55.9518	  88.0630	   0.0000	
 48.2424	  58.9846	   0.0000	
 42.7128	  68.4341	   0.0000	
 45.5723	  62.0440	   0.0000	
 43.4957	  65.3649	   0.0000	
 43.2828	  65.3879	   0.0000	
 41.1438	  65.8937	   0.0000	
 42.7613	  67.9547	   0.0000	
 42.2685	  69.8429	   0.0000	
 43.1053	  71.8931	   0.0000	
 44.0308	  74.1158	   0.0000	
 43.8565	  75.6558	   0.0000	
 47.1726	  77.2292	   0.0000	
 44.3884	  79.5578	   0.0000	
 50.8190	  78.7528	   0.0000	
 46.1015	  85.1676	   0.0000	
 49.4391	  83.3034	   0.0000	
 46.6587	  88.0674	   0.0000	
 51.1041	  86.1517	   0.0000	
 47.0874	  91.6586	   0.0000	
 43.0040	  58.9134	   0.0000	
 45.5042	  61.4131	   0.0000	
 43.2211	  60.6308	   0.0000	
 42.9736	  63.7475	   0.0000	
 41.8129	  65.2881	   0.0000	
 40.5166	  66.0965	   0.0000	
 41.5979	  68.4576	   0.0000	
 41.1478	  70.3335	   0.0000	
 41.9510	  72.4422	   0.0000	
 42.9946	  74.5735	   0.0000	
 42.7690	  76.0244	   0.0000	
 46.4489	  77.6740	   0.0000	
 43.0204	  79.1507	   0.0000	
 50.5050	  79.2965	   0.0000	
 43.2061	  82.5810	   0.0000	
 50.8493	  82.1788	   0.0000	
 43.9175	  84.9482	   0.0000	
 50.6135	  82.7371	   0.0000	
 44.8728	  94.2504	   0.0000	
 43.6745	  58.2100	   0.0000	
 44.6008	  63.6884	   0.0000	
 41.2811	  61.7389	   0.0000	
 41.8627	  64.4812	   0.0000	
 40.4596	  65.5034	   0.0000	
 39.6163	  66.6778	   0.0000	
 40.3017	  68.9314	   0.0000	
 39.9143	  70.8618	   0.0000	
 40.6819	  72.9813	   0.0000	
 41.8605	  75.1004	   0.0000	
 41.8403	  76.7110	   0.0000	
 45.1742	  78.1970	   0.0000	
 42.6509	  80.0923	   0.0000	
 48.4582	  79.4297	   0.0000	
 43.7835	  83.9821	   0.0000	
 48.2979	  80.6994	   0.0000	
 44.9623	  87.8407	   0.0000	
 49.1112	  80.5882	   0.0000	
 40.2458	  94.3811	   0.0000	
 42.1780	  56.1693	   0.0000	
 43.0254	  63.4738	   0.0000	
 39.7230	  60.9851	   0.0000	
 40.7494	  64.2813	   0.0000	
 38.9485	  65.5077	   0.0000	
 38.4939	  67.0650	   0.0000	
 38.8821	  69.4471	   0.0000	
 38.5551	  71.5501	   0.0000	
 39.4559	  73.6732	   0.0000	
 40.4268	  75.9495	   0.0000	
 40.6876	  77.3435	   0.0000	
 43.8750	  78.5322	   0.0000	
 41.8207	  80.1505	   0.0000	
 47.8253	  79.2726	   0.0000	
 41.6350	  82.3849	   0.0000	
 50.3169	  80.2122	   0.0000	
 39.7188	  84.6580	   0.0000	
 53.2659	  81.3752	   0.0000	
 37.6205	  90.4713	   0.0000	
 40.0154	  58.2115	   0.0000	
 41.7492	  63.5912	   0.0000	
 38.2115	  61.6428	   0.0000	
 39.0415	  64.8018	   0.0000	
 37.4369	  65.9777	   0.0000	
 36.9694	  67.6885	   0.0000	
 37.2117	  70.0225	   0.0000	
 37.0919	  71.9725	   0.0000	
 37.7594	  74.3046	   0.0000	
 39.1845	  76.1466	   0.0000	
 39.8778	  78.2132	   0.0000	
 42.7779	  79.4881	   0.0000	
 41.3727	  81.2260	   0.0000	
 46.7153	  80.6147	   0.0000	
 41.7382	  83.6670	   0.0000	
 48.9475	  80.3519	   0.0000	
 41.0147	  85.8846	   0.0000	
 47.8993	  79.7223	   0.0000	
 42.3763	  93.3921	   0.0000	
 40.1521	  58.6191	   0.0000	
 39.0700	  62.3533	   0.0000	
 36.5927	  61.7589	   0.0000	
 37.0608	  64.5062	   0.0000	
 35.7165	  66.2072	   0.0000	
 35.2617	  68.2238	   0.0000	
 35.4722	  70.8224	   0.0000	
 35.1508	  73.4467	   0.0000	
 36.4461	  75.6069	   0.0000	
 37.2479	  78.3254	   0.0000	
 38.1535	  79.5497	   0.0000	
 41.1181	  80.8222	   0.0000	
 40.8512	  81.6160	   0.0000	
 45.1401	  79.9027	   0.0000	
 41.7073	  82.5945	   0.0000	
 48.9716	  77.5976	   0.0000	
 38.7819	  84.7343	   0.0000	
 51.1311	  79.7585	   0.0000	
 32.6200	  92.4936	   0.0000	
 38.9565	  60.1763	   0.0000	
 36.4389	  62.3404	   0.0000	
 35.2948	  62.7832	   0.0000	
 34.6262	  64.9339	   0.0000	
 33.6377	  66.9329	   0.0000	
 33.2709	  68.8369	   0.0000	
 33.2119	  71.5404	   0.0000	
 33.8223	  73.0213	   0.0000	
 34.0602	  75.9537	   0.0000	
 35.8730	  77.4640	   0.0000	
 37.4061	  79.5191	   0.0000	
 39.1679	  80.5968	   0.0000	
 40.4997	  83.7431	   0.0000	
 44.7239	  83.0480	   0.0000	
 41.6284	  85.2403	   0.0000	
 49.1226	  81.6429	   0.0000	
 38.7686	  87.6649	   0.0000	
 46.4044	  83.5532	   0.0000	
 41.6256	  84.1834	   0.0000	
 36.4524	  59.9458	   0.0000	
 33.8065	  62.5671	   0.0000	
 32.7814	  63.3770	   0.0000	
 31.7957	  65.0347	   0.0000	
 30.6998	  67.6643	   0.0000	
 30.0298	  70.3784	   0.0000	
 31.1198	  73.2231	   0.0000	
 30.2223	  76.6287	   0.0000	
 32.2692	  78.8755	   0.0000	
 32.3534	  82.0805	   0.0000	
 35.5551	  85.1955	   0.0000	
 38.1168	  85.9678	   0.0000	
 38.2235	  85.0834	   0.0000	
 43.4968	  83.4924	   0.0000	
 42.9609	  83.9875	   0.0000	
 47.2706	  78.8294	   0.0000	
 41.9192	  83.1536	   0.0000	
 44.2516	  79.1083	   0.0000	
 47.9206	  75.0934	   0.0000	
 34.0363	  58.7140	   0.0000	
 29.0255	  63.3044	   0.0000	
 30.0911	  65.1242	   0.0000	
 29.6225	  66.4079	   0.0000	
 27.8695	  68.4650	   0.0000	
 28.6873	  69.9358	   0.0000	
 27.8844	  73.0134	   0.0000	
 29.3350	  74.4191	   0.0000	
 28.8743	  77.2424	   0.0000	
 32.2390	  78.7934	   0.0000	
 31.3672	  79.2085	   0.0000	
 35.4787	  82.7777	   0.0000	
 39.2712	  86.6547	   0.0000	
 41.1103	  86.0328	   0.0000	
 42.4679	  90.2466	   0.0000	
 48.0207	  87.1983	   0.0000	
 43.6526	  90.0595	   0.0000	
 50.5535	  84.5159	   0.0000	
 47.2183	  76.3795	   0.0000	
 27.0243	  58.7506	   0.0000	
 26.0727	  64.2354	   0.0000	
 25.0646	  65.8681	   0.0000	
 24.8705	  68.5992	   0.0000	
 24.8973	  72.0583	   0.0000	
 22.7607	  74.0375	   0.0000	
 25.1268	  77.3723	   0.0000	
 23.8194	  81.3493	   0.0000	
 27.0318	  84.6237	   0.0000	
 23.4145	  90.3620	   0.0000	
 29.5131	  95.4386	   0.0000	
 32.0038	  96.6124	   0.0000	
 32.9540	  96.6765	   0.0000	
 42.8676	  92.7009	   0.0000	
 37.0558	  93.7938	   0.0000	
 48.5490	  86.1751	   0.0000	
 46.6167	  84.9690	   0.0000	
 46.5150	  85.9517	   0.0000	
 55.9297	  76.0018	   0.0000	
 22.5343	  60.2825	   0.0000	
 22.0143	  66.7081	   0.0000	
 19.2393	  68.4447	   0.0000	
 21.5998	  71.9605	   0.0000	
 24.2030	  73.0386	   0.0000	
 20.9347	  71.3121	   0.0000	
 19.2741	  74.6891	   0.0000	
 21.7382	  75.5064	   0.0000	
 19.3377	  77.0169	   0.0000	
 25.4632	  75.5319	   0.0000	
 22.0976	  76.5045	   0.0000	
 29.4340	  80.8152	   0.0000	
 27.6425	  85.6456	   0.0000	
 44.5466	  87.8963	   0.0000	
 28.4406	 103.8102	   0.0000	
 45.9712	 110.9339	   0.0000	
 59.4233	  99.6915	   0.0000	
 51.7820	  96.7172	   0.0000	
 50.2745	  87.9304	   0.0000	
 12.8641	  58.6397	   0.0000	
  5.3424	  69.6517	   0.0000	
 18.0008	  80.0683	   0.0000	
 28.1587	  81.7001	   0.0000	
 21.8128	  77.9468	   0.0000	
 13.9685	  76.5194	   0.0000	
 19.6254	  78.5551	   0.0000	
 16.2121	  83.3101	   0.0000	
 18.5465	  89.0928	   0.0000	
  8.5732	  97.7991	   0.0000	
 19.4187	 105.6842	   0.0000	
 14.0272	 109.3638	   0.0000	
 14.7989	 119.6989	   0.0000	
 23.0042	 125.2415	   0.0000	
 30.5510	 123.2141	   0.0000	
  3.1103	 132.2905	   0.0000	
 28.3365	 127.0958	   0.0000	
 87.5287	 102.9916	   0.0000	
 72.4114	  84.0489	   0.0000	
  3.0987	  55.7354	   0.0000	
 21.8844	  67.9987	   0.0000	
 26.2610	  73.2701	   0.0000	
 18.8467	  78.0400	   0.0000	
 11.9254	  81.2559	   0.0000	
  1.4581	  86.8704	   0.0000	
  5.0718	  90.3549	   0.0000	
 -0.9943	  93.6007	   0.0000	
  2.9570	  96.4210	   0.0000	
  2.5355	  97.4998	   0.0000	
  0.3361	  99.0413	   0.0000	
  4.6257	 102.8010	   0.0000	
 -0.0893	 106.0539	   0.0000	
  7.6256	 106.1676	   0.0000	
-11.0444	 110.0511	   0.0000	
 47.7417	 118.8458	   0.0000	
 -9.1816	 130.8961	   0.0000	
 26.2390	 123.1492	   0.0000	
 65.2929	 109.3396	   0.0000	
 -0.0000	  -0.0000	   0.0000	
  0.0000	   0.0000	   0.0000	
 -0.0000	   0.0000	   0.0000	
 -0.0000	   0.0000	   0.0000	
  0.0000	  -0.0000	   0.0000	
 -0.0000	   0.0000	   0.0000	
  0.0000	   0.0000	   0.0000	
  0.0000	  -0.0000	   0.0000	
 -0.0000	  -0.0000	   0.0000	
  0.0000	   0.0000	   0.0000	
  0.0000	   0.0000	   0.0000	
  0.0000	  -0.0000	   0.0000	
 -0.0000	  -0.0000	   0.0000	
 -0.0000	   0.0000	   0.0000	
 -0.0000	  -0.0000	   0.0000	
 -0.0000	  -0.0000	   0.0000	
  0.0000	  -0.0000	   0.0000	
 -0.0000	  -0.0000	   0.0000	
  0.0000	   0.0000	   0.0000	
 50.0000	  50.0000	   0.0000	
 50.0000	  -0.0000	   0.0000	
 80.6153	  48.1820	   0.0000	
 45.8281	  18.1637	   0.0000	
 19.7673	  66.1365	   0.0000	
 62.2508	  39.1368	   0.0000	
116.2412	  15.8117	   0.0000	
 78.8805	  60.9417	   0.0000	
 77.1832	  53.3825	   0.0000	
 74.6270	  74.8560	   0.0000	
 45.3732	  67.6979	   0.0000	
 54.2315	  75.8368	   0.0000	
 60.8773	  48.3720	   0.0000	
 68.9614	  92.9196	   0.0000	
 44.3070	  65.6572	   0.0000	
 57.7156	  86.4970	   0.0000	
 46.5362	  60.6804	   0.0000	
 55.7693	  83.1638	   0.0000	
 43.6484	  61.1625	   0.0000	
 54.3629	  80.1651	   0.0000	
 43.0597	  61.8278	   0.0000	
 51.8611	  77.2689	   0.0000	
 42.5332	  61.4217	   0.0000	
 48.9647	  74.7183	   0.0000	
 38.8529	  62.1477	   0.0000	
 57.8732	  77.9088	   0.0000	
 38.6571	  60.6855	   0.0000	
 44.3973	  69.5986	   0.0000	
 34.9859	  59.2344	   0.0000	
 50.2892	  70.8047	   0.0000	
 31.9371	  57.7935	   0.0000	
 53.2087	  71.1304	   0.0000	
 26.1231	  56.2972	   0.0000	
 57.2573	  69.5096	   0.0000	
 18.2168	  53.5994	   0.0000	
 69.3708	  70.2147	   0.0000	
  3.8628	  46.4368	   0.0000	
 75.9410	  62.7999	   0.0000	
-21.4311	  42.0840	   0.0000	
138.0503	  80.1500	   0.0000	
 -0.0000	   0.0000	   0.0000	
 -0.0000	  -0.0000	   0.0000	
 44.4958	  50.0000	   0.0000	
 98.0154	 172.1852	   0.0000	
 41.4869	  53.9881	   0.0000	
 55.2757	 152.8773	   0.0000	
 37.3597	  61.6639	   0.0000	
 27.2000	 132.0430	   0.0000	
 32.2696	  57.1081	   0.0000	
 26.4451	 123.8745	   0.0000	
 52.3247	  52.8607	   0.0000	
 18.1478	 113.9493	   0.0000	
 47.0213	  53.5312	   0.0000	
 20.8589	 110.6665	   0.0000	
 47.0119	  52.5552	   0.0000	
 21.4895	 105.3788	   0.0000	
 44.8768	  52.4286	   0.0000	
 23.7758	 101.5917	   0.0000	
 44.6726	  51.7868	   0.0000	
 23.0549	  96.6123	   0.0000	
 44.4580	  50.6531	   0.0000	
 18.6650	  88.9225	   0.0000	
 41.6145	  50.4973	   0.0000	
 33.7082	  89.6695	   0.0000	
 45.1532	  47.6505	   0.0000	
 24.7869	  81.8666	   0.0000	
 40.9070	  47.8111	   0.0000	
 32.2842	  79.9153	   0.0000	
 41.3964	  45.1654	   0.0000	
 32.3257	  74.4325	   0.0000	
 41.6486	  40.9977	   0.0000	
 33.2418	  68.3710	   0.0000	
 43.6036	  36.4643	   0.0000	
 36.9496	  61.4363	   0.0000	
 47.9666	  29.7737	   0.0000	
 29.3766	  47.9538	   0.0000	
 25.8124	  27.2487	   0.0000	
 68.3400	  45.5191	   0.0000	
 53.5278	   5.4684	   0.0000	
 47.8213	  14.1230	   0.0000	
 51.2359	  -3.9262	   0.0000	
 -2.0651	  -2.7155	   0.0000	
 -0.0000	   0.0000	   0.0000	
 -0.0000	  -0.0000	   0.0000	
 55.6644	  50.0000	   0.0000	
-52.5331	  61.6771	   0.0000	
 46.4708	  47.1685	   0.0000	
-12.0251	  64.4441	   0.0000	
 45.2819	  47.1920	   0.0000	
 -5.4074	  63.7262	   0.0000	
 41.5282	  50.0660	   0.0000	
  2.6101	  63.8328	   0.0000	
 45.6824	  49.9200	   0.0000	
  1.4011	  62.0969	   0.0000	
 42.8035	  51.0451	   0.0000	
  7.1405	  61.9348	   0.0000	
 44.4441	  51.5509	   0.0000	
  7.5373	  60.9226	   0.0000	
 45.7515	  52.0654	   0.0000	
  6.2785	  60.0804	   0.0000	
 43.6160	  53.2392	   0.0000	
 12.4434	  59.5344	   0.0000	
 43.5060	  54.3771	   0.0000	
 16.3501	  59.5377	   0.0000	
 44.0087	  54.9041	   0.0000	
 14.8243	  58.2480	   0.0000	
 46.4254	  55.7180	   0.0000	
 14.4132	  56.5500	   0.0000	
 51.1471	  56.6933	   0.0000	
 14.2846	  55.2651	   0.0000	
 47.8801	  59.1669	   0.0000	
 14.1641	  54.3996	   0.0000	
 52.1733	  61.2166	   0.0000	
 13.0195	  53.7629	   0.0000	
 62.0594	  64.1005	   0.0000	
 -1.5038	  52.1181	   0.0000	
 62.3650	  66.7515	   0.0000	
  6.1515	  50.5349	   0.0000	
 77.9249	  72.1563	   0.0000	
 10.8828	  49.6509	   0.0000	
 90.6159	  79.8756	   0.0000	
  0.4339	  54.6127	   0.0000	
 51.0269	  86.1079	   0.0000	
  6.6584	  62.5556	   0.0000	
 18.8760	  85.8346	   0.0000	
 19.3516	  66.7556	   0.0000	
 41.2895	  50.0000	   0.0000	
  6.9126	  53.0142	   0.0000	
 41.2519	  50.6807	   0.0000	
  0.3949	  57.0299	   0.0000	
 36.2073	  50.9295	   0.0000	
  9.7865	  56.9379	   0.0000	
 41.5693	  51.6954	   0.0000	
  5.6419	  58.5076	   0.0000	
 38.2091	  50.6951	   0.0000	
  8.6942	  58.7202	   0.0000	
 40.8131	  51.3523	   0.0000	
  8.4756	  59.6478	   0.0000	
 39.4389	  51.3279	   0.0000	
 11.3434	  58.8120	   0.0000	
 38.0708	  51.2207	   0.0000	
 12.1134	  60.1047	   0.0000	
 40.8814	  52.0876	   0.0000	
 12.5277	  60.1797	   0.0000	
 35.7346	  51.3610	   0.0000	
 17.9866	  59.2376	   0.0000	
 41.0817	  52.1219	   0.0000	
 12.7577	  59.5762	   0.0000	
 38.6402	  52.2539	   0.0000	
 15.6314	  59.1321	   0.0000	
 35.0674	  52.6860	   0.0000	
 17.8925	  59.8377	   0.0000	
 40.7242	  54.1361	   0.0000	
 15.4273	  60.4042	   0.0000	
 36.2889	  54.3929	   0.0000	
 18.6256	  59.5767	   0.0000	
 35.5117	  56.1233	   0.0000	
 18.4906	  61.4962	   0.0000	
 35.4087	  59.5480	   0.0000	
 16.1690	  64.8309	   0.0000	
 29.4036	  63.5919	   0.0000	
 16.9066	  68.9096	   0.0000	
 25.0894	  69.3801	   0.0000	
 28.2352	  66.1455	   0.0000	
 28.2316	  81.9182	   0.0000	
 21.1862	  71.3916	   0.0000	
 27.8152	  81.1851	   0.0000	
 16.2335	  69.1643	   0.0000	
 42.5065	  50.0000	   0.0000	
  1.2523	  46.1249	   0.0000	
 42.7948	  50.2174	   0.0000	
  1.3104	  46.5451	   0.0000	
 41.4812	  49.7394	   0.0000	
  3.4254	  46.1085	   0.0000	
 40.4653	  49.5283	   0.0000	
  6.9164	  45.7218	   0.0000	
 41.5261	  49.9676	   0.0000	
  8.4463	  44.1869	   0.0000	
 41.4900	  49.6638	   0.0000	
  2.3608	  48.4165	   0.0000	
 39.7397	  48.9192	   0.0000	
  8.2847	  45.2734	   0.0000	
 39.8248	  49.8378	   0.0000	
  6.6265	  47.3885	   0.0000	
 39.2335	  50.1804	   0.0000	
  8.2759	  47.4509	   0.0000	
 39.6333	  50.6430	   0.0000	
  9.0393	  47.6779	   0.0000	
 38.1491	  50.5447	   0.0000	
 11.1512	  47.7263	   0.0000	
 39.0664	  51.5146	   0.0000	
  9.4122	  48.8258	   0.0000	
 37.5041	  51.8624	   0.0000	
 12.7132	  48.5663	   0.0000	
 37.3035	  52.1225	   0.0000	
 14.1801	  48.5701	   0.0000	
 37.2624	  52.6307	   0.0000	
 13.4771	  49.7676	   0.0000	
 36.7177	  53.8694	   0.0000	
 15.1065	  50.3141	   0.0000	
 37.3933	  54.2586	   0.0000	
 15.6430	  50.6155	   0.0000	
 34.0546	  53.6321	   0.0000	
 16.7337	  51.1505	   0.0000	
 33.8816	  53.0547	   0.0000	
 22.1322	  50.0211	   0.0000	
 33.9690	  52.8037	   0.0000	
 15.8104	  54.5570	   0.0000	
 28.8266	  49.6428	   0.0000	
 21.7119	  52.0535	   0.0000	
 47.2073	  50.0000	   0.0000	
  0.3941	  28.1625	   0.0000	
 45.0883	  49.4756	   0.0000	
  0.4646	  29.7966	   0.0000	
 43.0954	  48.8389	   0.0000	
  0.9411	  30.8444	   0.0000	
 42.9597	  48.6470	   0.0000	
  2.9894	  32.0981	   0.0000	
 45.0486	  49.4485	   0.0000	
  3.6358	  33.2828	   0.0000	
 44.2690	  48.5605	   0.0000	
  6.1771	  34.3855	   0.0000	
 40.2922	  45.7332	   0.0000	
  7.7565	  35.6078	   0.0000	
 40.8735	  46.1071	   0.0000	
  6.3153	  38.1499	   0.0000	
 38.9806	  45.5448	   0.0000	
 10.4566	  37.3953	   0.0000	
 38.7378	  46.2690	   0.0000	
 11.8146	  39.5465	   0.0000	
 37.8638	  46.5486	   0.0000	
 12.9269	  41.8505	   0.0000	
 37.2280	  46.0417	   0.0000	
 14.4221	  42.6026	   0.0000	
 35.5050	  45.8338	   0.0000	
 17.3900	  43.6790	   0.0000	
 35.4527	  47.3062	   0.0000	
 16.7418	  46.9859	   0.0000	
 33.8447	  47.4346	   0.0000	
 19.5312	  47.5821	   0.0000	
 33.0347	  48.5434	   0.0000	
 20.3475	  49.3861	   0.0000	
 32.2048	  49.4223	   0.0000	
 21.6887	  49.6773	   0.0000	
 30.2414	  50.4040	   0.0000	
 23.0411	  51.3318	   0.0000	
 28.4079	  51.8634	   0.0000	
 24.4168	  52.7560	   0.0000	
 26.7127	  54.7523	   0.0000	
 26.4392	  53.9326	   0.0000	
 24.5340	  55.7249	   0.0000	
 25.1241	  54.5856	   0.0000	
  0.0000	   0.0000	   0.0000	
  0.0000	   0.0000	   0.0000	
 -0.0000	   0.0000	   0.0000	
  0.0000	  -0.0000	   0.0000	
 -0.0000	   0.0000	   0.0000	
  0.0000	   0.0000	   0.0000	
 -0.0000	   0.0000	   0.0000	
 -0.0000	  -0.0000	   0.0000	
 -0.0000	  -0.0000	   0.0000	
 -0.0000	   0.0000	   0.0000	
 -0.0000	  -0.0000	   0.0000	
 -0.0000	  -0.0000	   0.0000	
 -0.0000	   0.0000	   0.0000	
 -0.0000	  -0.0000	   0.0000	