# vtk DataFile Version 3.0 
Results 
ASCII 
DATASET UNSTRUCTURED_GRID 
POINTS 	    1085 float 
  0.0000	   0.6667	  0.0000	 
  0.0000	   1.3333	  0.0000	 
  0.0000	   2.0000	  0.0000	 
  0.0000	   2.6667	  0.0000	 
  0.0000	   3.3333	  0.0000	 
  0.0000	   4.0000	  0.0000	 
  0.0000	   4.6667	  0.0000	 
  0.0000	   5.3333	  0.0000	 
  0.0000	   6.0000	  0.0000	 
  0.0000	   6.6667	  0.0000	 
  0.0000	   7.3333	  0.0000	 
  0.0000	   8.0000	  0.0000	 
  0.0000	   8.6667	  0.0000	 
  0.0000	   9.3333	  0.0000	 
  0.0000	  10.0000	  0.0000	 
  0.0000	  10.6667	  0.0000	 
  0.0000	  11.3333	  0.0000	 
  0.2500	   0.9383	  0.0000	 
  0.2500	   1.5710	  0.0000	 
  0.2500	   2.2037	  0.0000	 
  0.2500	   2.8364	  0.0000	 
  0.2500	   3.4691	  0.0000	 
  0.2500	   4.1019	  0.0000	 
  0.2500	   4.7346	  0.0000	 
  0.2500	   5.3673	  0.0000	 
  0.2500	   6.0000	  0.0000	 
  0.2500	   6.6327	  0.0000	 
  0.2500	   7.2654	  0.0000	 
  0.2500	   7.8981	  0.0000	 
  0.2500	   8.5309	  0.0000	 
  0.2500	   9.1636	  0.0000	 
  0.2500	   9.7963	  0.0000	 
  0.2500	  10.4290	  0.0000	 
  0.2500	  11.0617	  0.0000	 
  0.5000	   1.2099	  0.0000	 
  0.5000	   1.8086	  0.0000	 
  0.5000	   2.4074	  0.0000	 
  0.5000	   3.0062	  0.0000	 
  0.5000	   3.6049	  0.0000	 
  0.5000	   4.2037	  0.0000	 
  0.5000	   4.8025	  0.0000	 
  0.5000	   5.4012	  0.0000	 
  0.5000	   6.0000	  0.0000	 
  0.5000	   6.5988	  0.0000	 
  0.5000	   7.1975	  0.0000	 
  0.5000	   7.7963	  0.0000	 
  0.5000	   8.3951	  0.0000	 
  0.5000	   8.9938	  0.0000	 
  0.5000	   9.5926	  0.0000	 
  0.5000	  10.1914	  0.0000	 
  0.5000	  10.7901	  0.0000	 
  0.7500	   1.4815	  0.0000	 
  0.7500	   2.0463	  0.0000	 
  0.7500	   2.6111	  0.0000	 
  0.7500	   3.1759	  0.0000	 
  0.7500	   3.7407	  0.0000	 
  0.7500	   4.3056	  0.0000	 
  0.7500	   4.8704	  0.0000	 
  0.7500	   5.4352	  0.0000	 
  0.7500	   6.0000	  0.0000	 
  0.7500	   6.5648	  0.0000	 
  0.7500	   7.1296	  0.0000	 
  0.7500	   7.6944	  0.0000	 
  0.7500	   8.2593	  0.0000	 
  0.7500	   8.8241	  0.0000	 
  0.7500	   9.3889	  0.0000	 
  0.7500	   9.9537	  0.0000	 
  0.7500	  10.5185	  0.0000	 
  1.0000	   1.7531	  0.0000	 
  1.0000	   2.2840	  0.0000	 
  1.0000	   2.8148	  0.0000	 
  1.0000	   3.3457	  0.0000	 
  1.0000	   3.8765	  0.0000	 
  1.0000	   4.4074	  0.0000	 
  1.0000	   4.9383	  0.0000	 
  1.0000	   5.4691	  0.0000	 
  1.0000	   6.0000	  0.0000	 
  1.0000	   6.5309	  0.0000	 
  1.0000	   7.0617	  0.0000	 
  1.0000	   7.5926	  0.0000	 
  1.0000	   8.1235	  0.0000	 
  1.0000	   8.6543	  0.0000	 
  1.0000	   9.1852	  0.0000	 
  1.0000	   9.7160	  0.0000	 
  1.0000	  10.2469	  0.0000	 
  1.2500	   2.0247	  0.0000	 
  1.2500	   2.5216	  0.0000	 
  1.2500	   3.0185	  0.0000	 
  1.2500	   3.5154	  0.0000	 
  1.2500	   4.0123	  0.0000	 
  1.2500	   4.5093	  0.0000	 
  1.2500	   5.0062	  0.0000	 
  1.2500	   5.5031	  0.0000	 
  1.2500	   6.0000	  0.0000	 
  1.2500	   6.4969	  0.0000	 
  1.2500	   6.9938	  0.0000	 
  1.2500	   7.4907	  0.0000	 
  1.2500	   7.9877	  0.0000	 
  1.2500	   8.4846	  0.0000	 
  1.2500	   8.9815	  0.0000	 
  1.2500	   9.4784	  0.0000	 
  1.2500	   9.9753	  0.0000	 
  1.5000	   2.2963	  0.0000	 
  1.5000	   2.7593	  0.0000	 
  1.5000	   3.2222	  0.0000	 
  1.5000	   3.6852	  0.0000	 
  1.5000	   4.1481	  0.0000	 
  1.5000	   4.6111	  0.0000	 
  1.5000	   5.0741	  0.0000	 
  1.5000	   5.5370	  0.0000	 
  1.5000	   6.0000	  0.0000	 
  1.5000	   6.4630	  0.0000	 
  1.5000	   6.9259	  0.0000	 
  1.5000	   7.3889	  0.0000	 
  1.5000	   7.8519	  0.0000	 
  1.5000	   8.3148	  0.0000	 
  1.5000	   8.7778	  0.0000	 
  1.5000	   9.2407	  0.0000	 
  1.5000	   9.7037	  0.0000	 
  1.7500	   2.5679	  0.0000	 
  1.7500	   2.9969	  0.0000	 
  1.7500	   3.4259	  0.0000	 
  1.7500	   3.8549	  0.0000	 
  1.7500	   4.2840	  0.0000	 
  1.7500	   4.7130	  0.0000	 
  1.7500	   5.1420	  0.0000	 
  1.7500	   5.5710	  0.0000	 
  1.7500	   6.0000	  0.0000	 
  1.7500	   6.4290	  0.0000	 
  1.7500	   6.8580	  0.0000	 
  1.7500	   7.2870	  0.0000	 
  1.7500	   7.7160	  0.0000	 
  1.7500	   8.1451	  0.0000	 
  1.7500	   8.5741	  0.0000	 
  1.7500	   9.0031	  0.0000	 
  1.7500	   9.4321	  0.0000	 
  2.0000	   2.8395	  0.0000	 
  2.0000	   3.2346	  0.0000	 
  2.0000	   3.6296	  0.0000	 
  2.0000	   4.0247	  0.0000	 
  2.0000	   4.4198	  0.0000	 
  2.0000	   4.8148	  0.0000	 
  2.0000	   5.2099	  0.0000	 
  2.0000	   5.6049	  0.0000	 
  2.0000	   6.0000	  0.0000	 
  2.0000	   6.3951	  0.0000	 
  2.0000	   6.7901	  0.0000	 
  2.0000	   7.1852	  0.0000	 
  2.0000	   7.5802	  0.0000	 
  2.0000	   7.9753	  0.0000	 
  2.0000	   8.3704	  0.0000	 
  2.0000	   8.7654	  0.0000	 
  2.0000	   9.1605	  0.0000	 
  2.2500	   3.1111	  0.0000	 
  2.2500	   3.4722	  0.0000	 
  2.2500	   3.8333	  0.0000	 
  2.2500	   4.1944	  0.0000	 
  2.2500	   4.5556	  0.0000	 
  2.2500	   4.9167	  0.0000	 
  2.2500	   5.2778	  0.0000	 
  2.2500	   5.6389	  0.0000	 
  2.2500	   6.0000	  0.0000	 
  2.2500	   6.3611	  0.0000	 
  2.2500	   6.7222	  0.0000	 
  2.2500	   7.0833	  0.0000	 
  2.2500	   7.4444	  0.0000	 
  2.2500	   7.8056	  0.0000	 
  2.2500	   8.1667	  0.0000	 
  2.2500	   8.5278	  0.0000	 
  2.2500	   8.8889	  0.0000	 
  2.5000	   3.3827	  0.0000	 
  2.5000	   3.7099	  0.0000	 
  2.5000	   4.0370	  0.0000	 
  2.5000	   4.3642	  0.0000	 
  2.5000	   4.6914	  0.0000	 
  2.5000	   5.0185	  0.0000	 
  2.5000	   5.3457	  0.0000	 
  2.5000	   5.6728	  0.0000	 
  2.5000	   6.0000	  0.0000	 
  2.5000	   6.3272	  0.0000	 
  2.5000	   6.6543	  0.0000	 
  2.5000	   6.9815	  0.0000	 
  2.5000	   7.3086	  0.0000	 
  2.5000	   7.6358	  0.0000	 
  2.5000	   7.9630	  0.0000	 
  2.5000	   8.2901	  0.0000	 
  2.5000	   8.6173	  0.0000	 
  2.7500	   3.6543	  0.0000	 
  2.7500	   3.9475	  0.0000	 
  2.7500	   4.2407	  0.0000	 
  2.7500	   4.5340	  0.0000	 
  2.7500	   4.8272	  0.0000	 
  2.7500	   5.1204	  0.0000	 
  2.7500	   5.4136	  0.0000	 
  2.7500	   5.7068	  0.0000	 
  2.7500	   6.0000	  0.0000	 
  2.7500	   6.2932	  0.0000	 
  2.7500	   6.5864	  0.0000	 
  2.7500	   6.8796	  0.0000	 
  2.7500	   7.1728	  0.0000	 
  2.7500	   7.4660	  0.0000	 
  2.7500	   7.7593	  0.0000	 
  2.7500	   8.0525	  0.0000	 
  2.7500	   8.3457	  0.0000	 
  3.0000	   3.9259	  0.0000	 
  3.0000	   4.1852	  0.0000	 
  3.0000	   4.4444	  0.0000	 
  3.0000	   4.7037	  0.0000	 
  3.0000	   4.9630	  0.0000	 
  3.0000	   5.2222	  0.0000	 
  3.0000	   5.4815	  0.0000	 
  3.0000	   5.7407	  0.0000	 
  3.0000	   6.0000	  0.0000	 
  3.0000	   6.2593	  0.0000	 
  3.0000	   6.5185	  0.0000	 
  3.0000	   6.7778	  0.0000	 
  3.0000	   7.0370	  0.0000	 
  3.0000	   7.2963	  0.0000	 
  3.0000	   7.5556	  0.0000	 
  3.0000	   7.8148	  0.0000	 
  3.0000	   8.0741	  0.0000	 
  3.2500	   4.1975	  0.0000	 
  3.2500	   4.4228	  0.0000	 
  3.2500	   4.6481	  0.0000	 
  3.2500	   4.8735	  0.0000	 
  3.2500	   5.0988	  0.0000	 
  3.2500	   5.3241	  0.0000	 
  3.2500	   5.5494	  0.0000	 
  3.2500	   5.7747	  0.0000	 
  3.2500	   6.0000	  0.0000	 
  3.2500	   6.2253	  0.0000	 
  3.2500	   6.4506	  0.0000	 
  3.2500	   6.6759	  0.0000	 
  3.2500	   6.9012	  0.0000	 
  3.2500	   7.1265	  0.0000	 
  3.2500	   7.3519	  0.0000	 
  3.2500	   7.5772	  0.0000	 
  3.2500	   7.8025	  0.0000	 
  3.5000	   4.4691	  0.0000	 
  3.5000	   4.6605	  0.0000	 
  3.5000	   4.8519	  0.0000	 
  3.5000	   5.0432	  0.0000	 
  3.5000	   5.2346	  0.0000	 
  3.5000	   5.4259	  0.0000	 
  3.5000	   5.6173	  0.0000	 
  3.5000	   5.8086	  0.0000	 
  3.5000	   6.0000	  0.0000	 
  3.5000	   6.1914	  0.0000	 
  3.5000	   6.3827	  0.0000	 
  3.5000	   6.5741	  0.0000	 
  3.5000	   6.7654	  0.0000	 
  3.5000	   6.9568	  0.0000	 
  3.5000	   7.1481	  0.0000	 
  3.5000	   7.3395	  0.0000	 
  3.5000	   7.5309	  0.0000	 
  3.7500	   4.7407	  0.0000	 
  3.7500	   4.8981	  0.0000	 
  3.7500	   5.0556	  0.0000	 
  3.7500	   5.2130	  0.0000	 
  3.7500	   5.3704	  0.0000	 
  3.7500	   5.5278	  0.0000	 
  3.7500	   5.6852	  0.0000	 
  3.7500	   5.8426	  0.0000	 
  3.7500	   6.0000	  0.0000	 
  3.7500	   6.1574	  0.0000	 
  3.7500	   6.3148	  0.0000	 
  3.7500	   6.4722	  0.0000	 
  3.7500	   6.6296	  0.0000	 
  3.7500	   6.7870	  0.0000	 
  3.7500	   6.9444	  0.0000	 
  3.7500	   7.1019	  0.0000	 
  3.7500	   7.2593	  0.0000	 
  4.0000	   5.0123	  0.0000	 
  4.0000	   5.1358	  0.0000	 
  4.0000	   5.2593	  0.0000	 
  4.0000	   5.3827	  0.0000	 
  4.0000	   5.5062	  0.0000	 
  4.0000	   5.6296	  0.0000	 
  4.0000	   5.7531	  0.0000	 
  4.0000	   5.8765	  0.0000	 
  4.0000	   6.0000	  0.0000	 
  4.0000	   6.1235	  0.0000	 
  4.0000	   6.2469	  0.0000	 
  4.0000	   6.3704	  0.0000	 
  4.0000	   6.4938	  0.0000	 
  4.0000	   6.6173	  0.0000	 
  4.0000	   6.7407	  0.0000	 
  4.0000	   6.8642	  0.0000	 
  4.0000	   6.9877	  0.0000	 
  4.2500	   5.2840	  0.0000	 
  4.2500	   5.3735	  0.0000	 
  4.2500	   5.4630	  0.0000	 
  4.2500	   5.5525	  0.0000	 
  4.2500	   5.6420	  0.0000	 
  4.2500	   5.7315	  0.0000	 
  4.2500	   5.8210	  0.0000	 
  4.2500	   5.9105	  0.0000	 
  4.2500	   6.0000	  0.0000	 
  4.2500	   6.0895	  0.0000	 
  4.2500	   6.1790	  0.0000	 
  4.2500	   6.2685	  0.0000	 
  4.2500	   6.3580	  0.0000	 
  4.2500	   6.4475	  0.0000	 
  4.2500	   6.5370	  0.0000	 
  4.2500	   6.6265	  0.0000	 
  4.2500	   6.7160	  0.0000	 
  4.5000	   5.5556	  0.0000	 
  4.5000	   5.6111	  0.0000	 
  4.5000	   5.6667	  0.0000	 
  4.5000	   5.7222	  0.0000	 
  4.5000	   5.7778	  0.0000	 
  4.5000	   5.8333	  0.0000	 
  4.5000	   5.8889	  0.0000	 
  4.5000	   5.9444	  0.0000	 
  4.5000	   6.0000	  0.0000	 
  4.5000	   6.0556	  0.0000	 
  4.5000	   6.1111	  0.0000	 
  4.5000	   6.1667	  0.0000	 
  4.5000	   6.2222	  0.0000	 
  4.5000	   6.2778	  0.0000	 
  4.5000	   6.3333	  0.0000	 
  4.5000	   6.3889	  0.0000	 
  4.5000	   6.4444	  0.0000	 
  0.0000	   0.0000	  0.0000	 
  0.0000	  12.0000	  0.0000	 
  0.2500	   0.3056	  0.0000	 
  0.2500	  11.6944	  0.0000	 
  0.5000	   0.6111	  0.0000	 
  0.5000	  11.3889	  0.0000	 
  0.7500	   0.9167	  0.0000	 
[...]
POINT_DATA 	    1085 
VECTORS U float 
 51.3000	  -0.0000	   0.0000	
 51.3000	   0.0000	   0.0000	
 51.3000	  -0.0000	   0.0000	
 51.3000	   0.0000	   0.0000	
 51.3000	   0.0000	   0.0000	
 51.3000	   0.0000	   0.0000	
 51.3000	   0.0000	   0.0000	
 51.3000	  -0.0000	   0.0000	
 51.3000	   0.0000	   0.0000	
 51.3000	  -0.0000	   0.0000	
 51.3000	   0.0000	   0.0000	
 51.3000	  -0.0000	   0.0000	
 51.3000	  -0.0000	   0.0000	
 51.3000	   0.0000	   0.0000	
 51.3000	  -0.0000	   0.0000	
 51.3000	   0.0000	   0.0000	
 51.3000	  -0.0000	   0.0000	
 44.3272	  12.9376	   0.0000	
 53.2436	   1.7881	   0.0000	
 50.3723	  13.7122	   0.0000	
 51.4145	   0.1386	   0.0000	
 51.1396	   7.4721	   0.0000	
 51.2635	   7.6101	   0.0000	
 51.5136	   6.8143	   0.0000	
 51.1963	   6.8136	   0.0000	
 51.7674	   5.9639	   0.0000	
 51.3080	   4.5172	   0.0000	
 51.4436	   4.2870	   0.0000	
 51.4742	   3.3686	   0.0000	
 51.4553	   2.0383	   0.0000	
 51.2858	   1.3423	   0.0000	
 51.3428	   0.6689	   0.0000	
 51.2620	   0.9144	   0.0000	
 51.3881	   0.1928	   0.0000	
 55.1850	   7.1030	   0.0000	
 42.5708	  17.5324	   0.0000	
 61.6637	   4.2941	   0.0000	
 45.6897	   9.5662	   0.0000	
 51.0756	   7.5517	   0.0000	
 51.5262	   7.0266	   0.0000	
 51.5083	   7.2432	   0.0000	
 51.4140	   6.5920	   0.0000	
 51.8224	   6.8503	   0.0000	
 51.8940	   6.4996	   0.0000	
 51.5258	   5.1581	   0.0000	
 51.8773	   4.9624	   0.0000	
 52.1285	   3.6708	   0.0000	
 51.8879	   2.8893	   0.0000	
 51.7475	   1.8626	   0.0000	
 51.1777	   1.4519	   0.0000	
 51.7891	   0.8859	   0.0000	
 47.1565	  19.5155	   0.0000	
 57.0173	   3.4046	   0.0000	
 52.1751	  10.6778	   0.0000	
 49.8682	   5.5269	   0.0000	
 51.9744	   1.9924	   0.0000	
 51.6615	   0.4200	   0.0000	
 51.9603	  -0.7511	   0.0000	
 51.3224	  -0.9762	   0.0000	
 51.3536	   0.0144	   0.0000	
 51.7921	   1.5665	   0.0000	
 51.9053	   2.2242	   0.0000	
 51.6576	   2.4887	   0.0000	
 52.5001	   3.1124	   0.0000	
 52.0269	   3.6479	   0.0000	
 51.9907	   2.5272	   0.0000	
 51.6655	   2.4559	   0.0000	
 51.7136	   0.9976	   0.0000	
 56.7425	   2.5060	   0.0000	
 55.8038	   3.8767	   0.0000	
 51.6886	   5.1843	   0.0000	
 53.1217	  -1.2939	   0.0000	
 52.5760	  -2.2409	   0.0000	
 52.0521	  -3.3505	   0.0000	
 52.0005	  -2.7855	   0.0000	
 50.8432	  -2.2069	   0.0000	
 51.1025	  -1.5228	   0.0000	
 51.0775	  -0.9137	   0.0000	
 51.6113	   0.3420	   0.0000	
 51.3746	   1.1026	   0.0000	
 52.0356	   1.5396	   0.0000	
 51.5682	   2.5858	   0.0000	
 52.7079	   2.7792	   0.0000	
 51.6256	   2.7449	   0.0000	
 52.4556	   1.1704	   0.0000	
 56.8859	  -1.5920	   0.0000	
 51.7185	  -1.4531	   0.0000	
 54.5567	  -2.9536	   0.0000	
 53.1808	  -3.5680	   0.0000	
 53.0760	  -4.2893	   0.0000	
 51.5727	  -4.2723	   0.0000	
 51.6608	  -2.8812	   0.0000	
 50.4794	  -2.6625	   0.0000	
 50.6762	  -1.6130	   0.0000	
 50.7434	  -0.6524	   0.0000	
 51.0812	  -0.1515	   0.0000	
 51.0572	   0.8450	   0.0000	
 51.6715	   1.0884	   0.0000	
 51.3205	   1.9007	   0.0000	
 52.3607	   1.4502	   0.0000	
 51.7068	   2.7834	   0.0000	
 53.2651	   0.9916	   0.0000	
 54.8923	  -5.0121	   0.0000	
 53.0829	 -10.7050	   0.0000	
 53.6170	  -6.9132	   0.0000	
 53.1188	  -6.2913	   0.0000	
 52.7010	  -5.3968	   0.0000	
 50.5208	  -4.6137	   0.0000	
 51.4925	  -3.1510	   0.0000	
 49.8187	  -2.4893	   0.0000	
 50.3037	  -1.5420	   0.0000	
 50.2057	  -0.8325	   0.0000	
 50.8640	  -0.0299	   0.0000	
 50.5621	   0.4653	   0.0000	
 51.4796	   0.8122	   0.0000	
 51.1081	   1.1867	   0.0000	
 52.3957	   0.4659	   0.0000	
 51.2744	   1.4165	   0.0000	
 53.4360	  -0.2385	   0.0000	
 57.6707	  -4.1658	   0.0000	
 50.9130	  -8.9751	   0.0000	
 53.1705	  -5.7245	   0.0000	
 52.6003	  -5.5876	   0.0000	
 52.0350	  -4.9699	   0.0000	
 49.7232	  -5.3246	   0.0000	
 51.1103	  -3.4591	   0.0000	
 49.3337	  -3.7415	   0.0000	
 49.4705	  -2.0807	   0.0000	
 49.7468	  -0.5102	   0.0000	
 50.3222	   0.1300	   0.0000	
 50.2766	   1.3395	   0.0000	
 51.0974	   1.3130	   0.0000	
 51.0961	   2.0259	   0.0000	
 52.2582	   1.0283	   0.0000	
 51.3718	   2.2502	   0.0000	
 53.2813	  -0.4824	   0.0000	
 57.2123	  -0.5209	   0.0000	
 50.0222	  -8.5537	   0.0000	
 52.7524	  -4.7832	   0.0000	
 51.8990	  -4.0418	   0.0000	
 51.9256	  -3.8788	   0.0000	
 48.4888	  -4.0545	   0.0000	
 51.2350	  -2.5926	   0.0000	
 48.2419	  -1.8634	   0.0000	
 49.2236	  -1.0667	   0.0000	
 48.8276	  -0.7328	   0.0000	
 50.0219	   0.2063	   0.0000	
 49.5013	   0.9473	   0.0000	
 51.0995	   1.1429	   0.0000	
 50.5922	   1.4198	   0.0000	
 52.3216	   1.0666	   0.0000	
 50.9419	   2.3328	   0.0000	
 53.8969	  -0.0477	   0.0000	
 59.4062	   0.6675	   0.0000	
 49.2854	 -10.6046	   0.0000	
 51.6745	  -6.5631	   0.0000	
 51.8376	  -6.4067	   0.0000	
 51.6177	  -6.0556	   0.0000	
 47.7193	  -7.7119	   0.0000	
 50.4422	  -4.4388	   0.0000	
 47.6528	  -4.8067	   0.0000	
 47.7356	  -2.5709	   0.0000	
 48.4502	  -0.1498	   0.0000	
 49.1849	   0.4300	   0.0000	
 48.9994	   2.3259	   0.0000	
 50.6162	   1.7913	   0.0000	
 50.6095	   2.7498	   0.0000	
 51.6283	   1.8857	   0.0000	
 51.0120	   3.4622	   0.0000	
 53.5284	   0.4889	   0.0000	
 60.3452	   2.3032	   0.0000	
 47.8107	  -8.2739	   0.0000	
 51.3200	  -5.0744	   0.0000	
 50.9519	  -3.6100	   0.0000	
 52.1797	  -3.0238	   0.0000	
 45.3211	  -3.9817	   0.0000	
 50.8791	  -1.4798	   0.0000	
 46.4360	  -1.8451	   0.0000	
 47.3361	  -0.9772	   0.0000	
 47.1063	  -0.6065	   0.0000	
 48.8470	   0.2026	   0.0000	
 47.5632	   1.3701	   0.0000	
 50.8434	   0.9964	   0.0000	
 49.6604	   1.7396	   0.0000	
 51.7060	   1.7948	   0.0000	
 50.3297	   2.4150	   0.0000	
 53.7386	   0.0793	   0.0000	
 58.3177	   0.2224	   0.0000	
 49.4553	 -10.0412	   0.0000	
 50.3823	 -10.4519	   0.0000	
 50.6698	 -10.3948	   0.0000	
 51.0700	  -7.6485	   0.0000	
 44.0126	 -11.1239	   0.0000	
 50.4912	  -6.4348	   0.0000	
 44.7833	  -4.9938	   0.0000	
 45.0389	  -2.4378	   0.0000	
 46.1837	   0.7261	   0.0000	
 47.8067	   2.2640	   0.0000	
 46.6990	   4.6312	   0.0000	
 50.3402	   2.9769	   0.0000	
 49.3363	   4.9412	   0.0000	
 50.4932	   4.2086	   0.0000	
 51.5255	   4.0488	   0.0000	
 52.7490	   1.0588	   0.0000	
 55.6151	   0.2234	   0.0000	
 51.9038	  -1.0070	   0.0000	
 51.4449	  -5.1652	   0.0000	
 47.5016	  -5.1906	   0.0000	
 53.0231	  -3.0359	   0.0000	
 40.5696	  -7.4184	   0.0000	
 47.9263	   0.8445	   0.0000	
 43.9125	  -1.8114	   0.0000	
 45.1969	  -1.4944	   0.0000	
 44.0608	  -1.9196	   0.0000	
 45.6919	  -1.0756	   0.0000	
 44.4146	   3.0961	   0.0000	
 51.1779	   1.2521	   0.0000	
 47.6067	   3.4827	   0.0000	
 50.9668	   2.2486	   0.0000	
 51.2518	   0.3280	   0.0000	
 53.4954	   0.0470	   0.0000	
 48.3073	 -11.8208	   0.0000	
 56.9949	  -7.3520	   0.0000	
 49.4759	 -11.7772	   0.0000	
 47.5702	 -15.3073	   0.0000	
 53.0073	  -8.0770	   0.0000	
 32.8824	 -13.5078	   0.0000	
 51.0633	  -9.5757	   0.0000	
 42.5337	  -8.1829	   0.0000	
 38.1462	  -1.4940	   0.0000	
 43.7138	   5.0612	   0.0000	
 45.2490	   6.1092	   0.0000	
 39.7425	   7.8669	   0.0000	
 50.6217	   5.8475	   0.0000	
 46.9716	  10.6555	   0.0000	
 50.9187	   6.5937	   0.0000	
 53.8420	   3.6263	   0.0000	
 48.8555	   6.1706	   0.0000	
 57.7288	  -4.9831	   0.0000	
 50.9071	  -5.3761	   0.0000	
 53.1854	  -6.5037	   0.0000	
 38.7926	  -9.5521	   0.0000	
 51.8344	   2.8461	   0.0000	
 36.7018	 -16.3015	   0.0000	
 44.5025	  -2.9412	   0.0000	
 34.5743	   1.1617	   0.0000	
 41.3625	  -1.8835	   0.0000	
 35.8559	  -3.8668	   0.0000	
 42.3064	   0.8825	   0.0000	
 41.4868	   5.4536	   0.0000	
 48.3449	  -3.4712	   0.0000	
 40.3169	   6.8512	   0.0000	
 52.7887	   3.3976	   0.0000	
 52.6031	   2.5048	   0.0000	
 54.4347	   2.1803	   0.0000	
 52.5130	 -17.8872	   0.0000	
 54.5595	 -16.4608	   0.0000	
 42.8272	 -22.7914	   0.0000	
 25.9915	 -25.9382	   0.0000	
 74.0021	  -9.3237	   0.0000	
 16.1534	 -18.7303	   0.0000	
 36.2590	  -6.6620	   0.0000	
 40.6252	 -10.4777	   0.0000	
 27.9543	  -0.5457	   0.0000	
 38.6991	   7.4426	   0.0000	
 33.8407	   7.2959	   0.0000	
 32.4314	  13.2702	   0.0000	
 59.1848	   9.5577	   0.0000	
 28.8319	  22.2273	   0.0000	
 47.3062	  16.8759	   0.0000	
 54.5607	   9.6207	   0.0000	
 52.3146	  11.1597	   0.0000	
 59.7551	 -13.5539	   0.0000	
 42.2733	 -23.5143	   0.0000	
  5.3163	 -28.5994	   0.0000	
 70.2568	 -21.8739	   0.0000	
 32.8403	 -12.9505	   0.0000	
  9.6193	 -20.0175	   0.0000	
 44.6463	 -17.6738	   0.0000	
 17.0334	  -4.2872	   0.0000	
 24.8936	  -3.4443	   0.0000	
 22.6703	  -0.8643	   0.0000	
 33.4847	   8.7236	   0.0000	
 22.5431	  13.1839	   0.0000	
 37.4820	  12.9395	   0.0000	
 56.2876	  18.0854	   0.0000	
 12.8600	  23.7466	   0.0000	
 49.9807	  15.5830	   0.0000	
 64.2182	   6.8159	   0.0000	
 22.5859	 -56.7552	   0.0000	
 53.8441	 -44.2896	   0.0000	
  4.7607	 -41.9680	   0.0000	
 45.0695	 -36.7573	   0.0000	
-16.9319	 -30.7857	   0.0000	
 42.5606	 -21.7523	   0.0000	
-11.8768	 -14.8576	   0.0000	
 19.3272	  -9.2927	   0.0000	
  3.2741	  -1.8593	   0.0000	
 16.0866	   5.4468	   0.0000	
  3.5443	  11.5193	   0.0000	
 21.5069	  18.6106	   0.0000	
  4.5720	  25.1869	   0.0000	
 31.6775	  31.6258	   0.0000	
 26.2417	  38.0522	   0.0000	
 40.1751	  44.3752	   0.0000	
 23.9379	  53.9672	   0.0000	
 -0.0000	   0.0000	   0.0000	
  0.0000	   0.0000	   0.0000	
  0.0000	   0.0000	   0.0000	
 -0.0000	   0.0000	   0.0000	
 -0.0000	  -0.0000	   0.0000	
 -0.0000	   0.0000	   0.0000	
 -0.0000	   0.0000	   0.0000	
 -0.0000	  -0.0000	   0.0000	
  0.0000	   0.0000	   0.0000	
 -0.0000	   0.0000	   0.0000	
 -0.0000	  -0.0000	   0.0000	
 -0.0000	  -0.0000	   0.0000	
 -0.0000	  -0.0000	   0.0000	
  0.0000	   0.0000	   0.0000	
  0.0000	   0.0000	   0.0000	
  0.0000	   0.0000	   0.0000	
  0.0000	  -0.0000	   0.0000	
 51.3000	  -0.0000	   0.0000	
 51.3000	  -0.0000	   0.0000	
 43.9081	  -1.6769	   0.0000	
 51.2900	   0.4085	   0.0000	
 20.0678	   1.6590	   0.0000	
 51.0839	   0.7790	   0.0000	
 40.8442	  -9.7795	   0.0000	
 51.5943	   1.3712	   0.0000	
 24.7952	  -3.6030	   0.0000	
 51.4222	   1.6259	   0.0000	
 46.0311	 -17.5528	   0.0000	
 51.1812	   1.7757	   0.0000	
 45.9316	 -17.2114	   0.0000	
 51.6397	   2.1504	   0.0000	
 44.8408	 -15.4115	   0.0000	
 51.3138	   2.1251	   0.0000	
 46.1177	 -15.1228	   0.0000	
 50.9855	   2.3066	   0.0000	
 44.5032	 -13.2090	   0.0000	
 51.7151	   3.2571	   0.0000	
 46.2412	 -13.1498	   0.0000	
 50.8785	   3.2984	   0.0000	
 47.7379	 -13.7384	   0.0000	
 50.9670	   4.4255	   0.0000	
 45.9133	 -12.5820	   0.0000	
 48.7663	   4.5110	   0.0000	
 50.1435	 -15.1672	   0.0000	
 51.6363	   7.8128	   0.0000	
 44.2302	 -11.9843	   0.0000	
 45.5674	   6.3605	   0.0000	
 53.7534	 -19.0008	   0.0000	
 52.6277	  13.9123	   0.0000	
 48.4989	 -17.6912	   0.0000	
 45.9985	  15.5330	   0.0000	
 73.5934	 -27.1864	   0.0000	
 75.3928	  25.7116	   0.0000	
  0.0000	   0.0000	   0.0000	
 -0.0000	   0.0000	   0.0000	
 57.5894	  -0.0000	   0.0000	
 55.0043	  -0.0000	   0.0000	
 49.1432	   0.6550	   0.0000	
 54.4634	   0.0526	   0.0000	
 52.2621	  -0.1116	   0.0000	
 53.7437	   0.0214	   0.0000	
 52.0663	   0.4280	   0.0000	
 53.8524	   0.2683	   0.0000	
 52.1635	   0.5317	   0.0000	
 54.1711	   0.5739	   0.0000	
 53.2541	   0.0419	   0.0000	
 54.2399	   0.7866	   0.0000	
 53.0473	  -0.0633	   0.0000	
 54.1254	   0.9201	   0.0000	
 51.7054	   0.1736	   0.0000	
 54.5589	   1.2538	   0.0000	
 55.1535	  -1.6255	   0.0000	
 56.3018	   2.1349	   0.0000	
 55.3181	  -1.7310	   0.0000	
 56.3873	   2.6647	   0.0000	
 54.9468	  -1.9835	   0.0000	
 56.0704	   3.4761	   0.0000	
 57.8541	  -3.0995	   0.0000	
 58.5869	   4.3186	   0.0000	
 55.5995	  -2.8998	   0.0000	
 57.0994	   4.3429	   0.0000	
 59.1418	  -4.4454	   0.0000	
 56.6839	   3.9450	   0.0000	
 62.3644	  -4.8561	   0.0000	
 66.8778	   7.5431	   0.0000	
 63.1276	  -5.0275	   0.0000	
 56.4060	   4.3129	   0.0000	
 80.7468	  -9.9129	   0.0000	
 84.0144	  11.9577	   0.0000	
 33.5693	   0.7670	   0.0000	
 32.7896	   0.6291	   0.0000	
 -0.0000	   0.0000	   0.0000	
 -0.0000	  -0.0000	   0.0000	
 49.8980	  -0.0000	   0.0000	
 54.8404	   0.0000	   0.0000	
 51.0755	  -0.0189	   0.0000	
 54.2244	  -0.2500	   0.0000	
 52.1635	  -0.1148	   0.0000	
 54.0960	  -0.4595	   0.0000	
 52.8495	   0.0017	   0.0000	
 54.4941	  -0.6901	   0.0000	
 53.5491	   0.1046	   0.0000	
 54.4897	  -0.9826	   0.0000	
 53.1195	   0.3995	   0.0000	
 54.7098	  -1.2846	   0.0000	
 52.7812	   0.9092	   0.0000	
 54.2889	  -1.8958	   0.0000	
 54.0997	   1.2895	   0.0000	
 55.4832	  -2.3748	   0.0000	
 55.1566	   1.8172	   0.0000	
 56.6229	  -3.0084	   0.0000	
 55.1366	   2.5811	   0.0000	
 56.0802	  -3.9073	   0.0000	
 57.0772	   3.6645	   0.0000	
 58.1112	  -4.8138	   0.0000	
 57.9517	   4.8570	   0.0000	
 58.1696	  -5.9275	   0.0000	
 56.2699	   6.6084	   0.0000	
 56.0590	  -7.5065	   0.0000	
 59.7199	   8.8707	   0.0000	
 63.8230	  -9.7671	   0.0000	
 60.2779	  11.4025	   0.0000	
 60.2456	 -11.9196	   0.0000	
 78.3689	  15.3865	   0.0000	
 76.9173	 -14.4262	   0.0000	
 60.8243	  16.0452	   0.0000	
 60.9349	 -14.5034	   0.0000	
 35.7724	  13.9795	   0.0000	
 36.6331	 -12.2262	   0.0000	
 16.1714	  10.2566	   0.0000	
 15.9884	  -8.3525	   0.0000	
 51.9882	   0.0000	   0.0000	
 52.4005	   0.0000	   0.0000	
 50.9919	  -0.2434	   0.0000	
 52.2070	  -0.1889	   0.0000	
 51.0866	  -0.1511	   0.0000	
 52.4202	  -0.3694	   0.0000	
 50.8617	  -0.0804	   0.0000	
 52.1968	  -0.4676	   0.0000	
 51.2058	   0.1582	   0.0000	
 52.4565	  -0.6997	   0.0000	
 50.7803	   0.3063	   0.0000	
 51.9746	  -0.7742	   0.0000	
 51.1532	   0.4614	   0.0000	
 52.3124	  -1.0000	   0.0000	
 51.0895	   0.5865	   0.0000	
 52.0870	  -1.1640	   0.0000	
 50.3253	   0.6717	   0.0000	
 51.6235	  -1.3674	   0.0000	
 51.6626	   1.1723	   0.0000	
 52.7316	  -1.8782	   0.0000	
 50.1175	   1.2810	   0.0000	
 51.5615	  -2.0842	   0.0000	
 49.4795	   1.8501	   0.0000	
 50.6571	  -2.8129	   0.0000	
 51.2665	   2.6038	   0.0000	
 51.9331	  -3.5010	   0.0000	
 48.4496	   3.0080	   0.0000	
 50.6956	  -3.9394	   0.0000	
 48.3609	   4.4990	   0.0000	
 50.6464	  -6.1243	   0.0000	
 51.1309	   6.6503	   0.0000	
 52.7526	  -8.4119	   0.0000	
 57.3586	  12.9604	   0.0000	
 58.8629	 -14.4287	   0.0000	
 47.5788	  12.8577	   0.0000	
 50.2200	 -14.7298	   0.0000	
 28.7152	   9.0432	   0.0000	
 29.7628	 -10.7570	   0.0000	
 50.1644	  -0.0000	   0.0000	
 50.8853	   0.0000	   0.0000	
 50.5864	   0.2328	   0.0000	
 51.1406	  -0.1782	   0.0000	
 50.7440	   0.4249	   0.0000	
 51.2108	  -0.3211	   0.0000	
 50.7773	   0.5672	   0.0000	
 51.2256	  -0.4454	   0.0000	
 50.6361	   0.5554	   0.0000	
 51.3213	  -0.5959	   0.0000	
 50.5697	   0.5652	   0.0000	
 51.3227	  -0.7507	   0.0000	
 50.4929	   0.5775	   0.0000	
 51.3982	  -0.9250	   0.0000	
 50.4286	   0.6253	   0.0000	
 51.1065	  -0.9821	   0.0000	
 50.8363	   0.8277	   0.0000	
 51.4667	  -1.2560	   0.0000	
 50.3530	   0.7738	   0.0000	
 51.0531	  -1.2695	   0.0000	
 50.5463	   0.8444	   0.0000	
 51.1766	  -1.4364	   0.0000	
 50.3965	   1.0200	   0.0000	
 51.0241	  -1.6635	   0.0000	
 49.6174	   0.6888	   0.0000	
 50.4144	  -1.5514	   0.0000	
 50.1929	   0.9913	   0.0000	
 50.8499	  -1.7815	   0.0000	
 49.3845	   0.8127	   0.0000	
 50.0808	  -1.7924	   0.0000	
 47.6232	   0.0904	   0.0000	
 48.5255	  -1.4242	   0.0000	
 48.9110	   0.6272	   0.0000	
 49.1332	  -1.8443	   0.0000	
 46.4224	   0.9952	   0.0000	
 48.2670	  -3.1910	   0.0000	
 42.7870	   4.6300	   0.0000	
 43.5488	  -6.2270	   0.0000	
 50.3305	  -0.0000	   0.0000	
 50.6330	   0.0000	   0.0000	
 50.3135	  -0.0302	   0.0000	
 50.6576	  -0.0218	   0.0000	
 50.3374	  -0.0537	   0.0000	
 50.6807	  -0.0430	   0.0000	
 50.3865	  -0.0672	   0.0000	
 50.6970	  -0.0641	   0.0000	
 50.3954	  -0.1010	   0.0000	
 50.7546	  -0.1032	   0.0000	
 50.3061	  -0.0892	   0.0000	
 50.7008	  -0.1374	   0.0000	
 50.3362	   0.0390	   0.0000	
 50.7102	  -0.2355	   0.0000	
 50.3122	   0.1446	   0.0000	
 50.7153	  -0.3398	   0.0000	
 50.3268	   0.2555	   0.0000	
 50.6287	  -0.4280	   0.0000	
 50.1201	   0.1942	   0.0000	
 50.4858	  -0.5210	   0.0000	
 50.2782	   0.3526	   0.0000	
 50.6904	  -0.7818	   0.0000	
 49.8171	   0.3235	   0.0000	
 50.2933	  -0.8461	   0.0000	
 50.0365	   0.5942	   0.0000	
 50.4844	  -1.1576	   0.0000	
 49.5379	   0.5072	   0.0000	
 50.0009	  -1.1364	   0.0000	
 49.2917	   0.6667	   0.0000	
 49.8266	  -1.3652	   0.0000	
 49.5476	   0.8180	   0.0000	
 49.8744	  -1.5483	   0.0000	
 48.6244	   0.3911	   0.0000	
 49.0801	  -1.3167	   0.0000	
 49.9708	   0.2684	   0.0000	
 49.6290	  -1.2030	   0.0000	
 44.8121	  -1.7965	   0.0000	
 45.8498	   0.2183	   0.0000	
  0.0000	   0.0000	   0.0000	
  0.0000	   0.0000	   0.0000	
 -0.0000	   0.0000	   0.0000	
 -0.0000	  -0.0000	   0.0000	
 -0.0000	   0.0000	   0.0000	
 -0.0000	   0.0000	   0.0000	
  0.0000	  -0.0000	   0.0000	
  0.0000	  -0.0000	   0.0000	
  0.0000	  -0.0000	   0.0000	
  0.0000	  -0.0000	   0.0000	
  0.0000	  -0.0000	   0.0000	
 -0.0000	  -0.0000	   0.0000	
  0.0000	   0.0000	   0.0000	
  0.0000	  -0.0000	   0.0000	
  0.0000	  -0.0000	   0.0000	
  0.0000	   0.0000	   0.0000	
  0.0000	   0.0000	   0.0000	
  0.0000	   0.0000	   0.0000	
 18.5669	  10.0519	   0.0000	
 16.4398	  -7.9715	   0.0000	
 20.8080	   9.1324	   0.0000	
 20.4786	  -7.4501	   0.0000	
 18.0754	   8.0011	   0.0000	
 19.7488	  -6.3099	   0.0000	
 14.8815	   6.8587	   0.0000	
 16.5641	  -4.9378	   0.0000	
 12.1337	   5.6536	   0.0000	
 12.6813	  -3.5033	   0.0000	
 10.0652	   4.4330	   0.0000	
 10.5581	  -2.1329	   0.0000	
  8.4965	   3.2949	   0.0000	
  9.0416	  -0.8979	   0.0000	
  0.0000	   0.0000	   0.0000	
  0.0000	   0.0000	   0.0000	
 31.9465	   8.0515	   0.0000	
 28.5857	  -9.6001	   0.0000	
 33.9968	   7.0543	   0.0000	
 29.7315	  -8.4217	   0.0000	
 34.2370	   5.9855	   0.0000	
 32.8620	  -7.5452	   0.0000	
 34.5033	   4.8231	   0.0000	
 33.9202	  -6.6102	   0.0000	
 34.9541	   3.5584	   0.0000	
 34.5974	  -5.5682	   0.0000	
 35.1652	   2.2073	   0.0000	
 34.8202	  -4.4193	   0.0000	
 35.3199	   0.7785	   0.0000	
 35.1223	  -3.2112	   0.0000	
  0.0000	   0.0000	   0.0000	
  0.0000	   0.0000	   0.0000	
 48.0054	   1.8264	   0.0000	
 46.7552	  -3.9427	   0.0000	
 50.1161	   1.4144	   0.0000	
 48.5429	  -3.3460	   0.0000	
 49.7600	   1.0606	   0.0000	
 48.8877	  -2.8763	   0.0000	
 49.5498	   0.6504	   0.0000	
 48.9978	  -2.3538	   0.0000	
 49.3661	   0.3034	   0.0000	
 48.9750	  -2.0015	   0.0000	
 49.1679	  -0.0287	   0.0000	
 48.9592	  -1.5653	   0.0000	
 49.0024	  -0.3732	   0.0000	
 48.9743	  -1.2807	   0.0000	
  0.0000	   0.0000	   0.0000	
  0.0000	   0.0000	   0.0000	
 47.1667	  -1.4519	   0.0000	
 46.5401	   0.2716	   0.0000	
 49.0379	  -1.3415	   0.0000	
 49.5559	   0.2212	   0.0000	
 48.9284	  -1.1857	   0.0000	
 49.7209	   0.1548	   0.0000	
 48.7885	  -1.0343	   0.0000	
 49.2893	   0.0738	   0.0000	
 48.9651	  -0.9048	   0.0000	
 49.2412	  -0.0418	   0.0000	
 48.7867	  -0.7294	   0.0000	
 48.9993	  -0.1483	   0.0000	
 48.9763	  -0.6051	   0.0000	
 49.0815	  -0.2402	   0.0000	
 -0.0000	  -0.0000	   0.0000	
  0.0000	  -0.0000	   0.0000	
 -0.0000	   0.0000	   0.0000	
  8.7277	   2.1941	   0.0000	
  8.2336	   1.3424	   0.0000	
  7.9360	   0.5231	   0.0000	
 35.9133	  -0.4968	   0.0000	
 35.5926	  -1.2147	   0.0000	
 35.1535	  -1.9834	   0.0000	
 48.7470	  -0.7425	   0.0000	
 49.0974	  -0.7648	   0.0000	
 49.2887	  -0.9009	   0.0000	
 48.7008	  -0.5505	   0.0000	
 48.6373	  -0.4717	   0.0000	
 49.0122	  -0.3118	   0.0000	
 48.6357	   0.2524	   0.0000	
 48.7481	  -1.1110	   0.0000	
 47.5043	   0.0339	   0.0000	
 47.9104	  -0.9343	   0.0000	
 46.6342	  -0.2745	   0.0000	
 47.2679	  -0.6821	   0.0000	
 48.4478	  -0.9089	   0.0000	
 48.5940	  -0.1588	   0.0000	
 49.0888	  -0.8010	   0.0000	
 49.6388	  -0.3281	   0.0000	
 48.8614	  -0.7341	   0.0000	
 49.1405	  -0.5038	   0.0000	
 48.8668	  -0.7000	   0.0000	
 49.0621	  -0.5922	   0.0000	
 49.0428	  -0.6760	   0.0000	
 48.9879	  -0.6529	   0.0000	
 49.2573	   0.4255	   0.0000	
 49.4079	  -1.3649	   0.0000	
 49.6647	   0.5239	   0.0000	