# vtk DataFile Version 3.0 
Results 
ASCII 
DATASET UNSTRUCTURED_GRID 
POINTS 	    1451 float 
  0.0000	   0.6000	  0.0000	 
  0.0000	   1.2000	  0.0000	 
  0.0000	   1.8000	  0.0000	 
  0.0000	   2.4000	  0.0000	 
  0.0000	   3.0000	  0.0000	 
  0.0000	   3.6000	  0.0000	 
  0.0000	   4.2000	  0.0000	 
  0.0000	   4.8000	  0.0000	 
  0.0000	   5.4000	  0.0000	 
  0.0000	   6.0000	  0.0000	 
  0.0000	   6.6000	  0.0000	 
  0.0000	   7.2000	  0.0000	 
  0.0000	   7.8000	  0.0000	 
  0.0000	   8.4000	  0.0000	 
  0.0000	   9.0000	  0.0000	 
  0.0000	   9.6000	  0.0000	 
  0.0000	  10.2000	  0.0000	 
  0.0000	  10.8000	  0.0000	 
  0.0000	  11.4000	  0.0000	 
  0.2250	   0.8475	  0.0000	 
  0.2250	   1.4200	  0.0000	 
  0.2250	   1.9925	  0.0000	 
  0.2250	   2.5650	  0.0000	 
  0.2250	   3.1375	  0.0000	 
  0.2250	   3.7100	  0.0000	 
  0.2250	   4.2825	  0.0000	 
  0.2250	   4.8550	  0.0000	 
  0.2250	   5.4275	  0.0000	 
  0.2250	   6.0000	  0.0000	 
  0.2250	   6.5725	  0.0000	 
  0.2250	   7.1450	  0.0000	 
  0.2250	   7.7175	  0.0000	 
  0.2250	   8.2900	  0.0000	 
  0.2250	   8.8625	  0.0000	 
  0.2250	   9.4350	  0.0000	 
  0.2250	  10.0075	  0.0000	 
  0.2250	  10.5800	  0.0000	 
  0.2250	  11.1525	  0.0000	 
  0.4500	   1.0950	  0.0000	 
  0.4500	   1.6400	  0.0000	 
  0.4500	   2.1850	  0.0000	 
  0.4500	   2.7300	  0.0000	 
  0.4500	   3.2750	  0.0000	 
  0.4500	   3.8200	  0.0000	 
  0.4500	   4.3650	  0.0000	 
  0.4500	   4.9100	  0.0000	 
  0.4500	   5.4550	  0.0000	 
  0.4500	   6.0000	  0.0000	 
  0.4500	   6.5450	  0.0000	 
  0.4500	   7.0900	  0.0000	 
  0.4500	   7.6350	  0.0000	 
  0.4500	   8.1800	  0.0000	 
  0.4500	   8.7250	  0.0000	 
  0.4500	   9.2700	  0.0000	 
  0.4500	   9.8150	  0.0000	 
  0.4500	  10.3600	  0.0000	 
  0.4500	  10.9050	  0.0000	 
  0.6750	   1.3425	  0.0000	 
  0.6750	   1.8600	  0.0000	 
  0.6750	   2.3775	  0.0000	 
  0.6750	   2.8950	  0.0000	 
  0.6750	   3.4125	  0.0000	 
  0.6750	   3.9300	  0.0000	 
  0.6750	   4.4475	  0.0000	 
  0.6750	   4.9650	  0.0000	 
  0.6750	   5.4825	  0.0000	 
  0.6750	   6.0000	  0.0000	 
  0.6750	   6.5175	  0.0000	 
  0.6750	   7.0350	  0.0000	 
  0.6750	   7.5525	  0.0000	 
  0.6750	   8.0700	  0.0000	 
  0.6750	   8.5875	  0.0000	 
  0.6750	   9.1050	  0.0000	 
  0.6750	   9.6225	  0.0000	 
  0.6750	  10.1400	  0.0000	 
  0.6750	  10.6575	  0.0000	 
  0.9000	   1.5900	  0.0000	 
  0.9000	   2.0800	  0.0000	 
  0.9000	   2.5700	  0.0000	 
  0.9000	   3.0600	  0.0000	 
  0.9000	   3.5500	  0.0000	 
  0.9000	   4.0400	  0.0000	 
  0.9000	   4.5300	  0.0000	 
  0.9000	   5.0200	  0.0000	 
  0.9000	   5.5100	  0.0000	 
  0.9000	   6.0000	  0.0000	 
  0.9000	   6.4900	  0.0000	 
  0.9000	   6.9800	  0.0000	 
  0.9000	   7.4700	  0.0000	 
  0.9000	   7.9600	  0.0000	 
  0.9000	   8.4500	  0.0000	 
  0.9000	   8.9400	  0.0000	 
  0.9000	   9.4300	  0.0000	 
  0.9000	   9.9200	  0.0000	 
  0.9000	  10.4100	  0.0000	 
  1.1250	   1.8375	  0.0000	 
  1.1250	   2.3000	  0.0000	 
  1.1250	   2.7625	  0.0000	 
  1.1250	   3.2250	  0.0000	 
  1.1250	   3.6875	  0.0000	 
  1.1250	   4.1500	  0.0000	 
  1.1250	   4.6125	  0.0000	 
  1.1250	   5.0750	  0.0000	 
  1.1250	   5.5375	  0.0000	 
  1.1250	   6.0000	  0.0000	 
  1.1250	   6.4625	  0.0000	 
  1.1250	   6.9250	  0.0000	 
  1.1250	   7.3875	  0.0000	 
  1.1250	   7.8500	  0.0000	 
  1.1250	   8.3125	  0.0000	 
  1.1250	   8.7750	  0.0000	 
  1.1250	   9.2375	  0.0000	 
  1.1250	   9.7000	  0.0000	 
  1.1250	  10.1625	  0.0000	 
  1.3500	   2.0850	  0.0000	 
  1.3500	   2.5200	  0.0000	 
  1.3500	   2.9550	  0.0000	 
  1.3500	   3.3900	  0.0000	 
  1.3500	   3.8250	  0.0000	 
  1.3500	   4.2600	  0.0000	 
  1.3500	   4.6950	  0.0000	 
  1.3500	   5.1300	  0.0000	 
  1.3500	   5.5650	  0.0000	 
  1.3500	   6.0000	  0.0000	 
  1.3500	   6.4350	  0.0000	 
  1.3500	   6.8700	  0.0000	 
  1.3500	   7.3050	  0.0000	 
  1.3500	   7.7400	  0.0000	 
  1.3500	   8.1750	  0.0000	 
  1.3500	   8.6100	  0.0000	 
  1.3500	   9.0450	  0.0000	 
  1.3500	   9.4800	  0.0000	 
  1.3500	   9.9150	  0.0000	 
  1.5750	   2.3325	  0.0000	 
  1.5750	   2.7400	  0.0000	 
  1.5750	   3.1475	  0.0000	 
  1.5750	   3.5550	  0.0000	 
  1.5750	   3.9625	  0.0000	 
  1.5750	   4.3700	  0.0000	 
  1.5750	   4.7775	  0.0000	 
  1.5750	   5.1850	  0.0000	 
  1.5750	   5.5925	  0.0000	 
  1.5750	   6.0000	  0.0000	 
  1.5750	   6.4075	  0.0000	 
  1.5750	   6.8150	  0.0000	 
  1.5750	   7.2225	  0.0000	 
  1.5750	   7.6300	  0.0000	 
  1.5750	   8.0375	  0.0000	 
  1.5750	   8.4450	  0.0000	 
  1.5750	   8.8525	  0.0000	 
  1.5750	   9.2600	  0.0000	 
  1.5750	   9.6675	  0.0000	 
  1.8000	   2.5800	  0.0000	 
  1.8000	   2.9600	  0.0000	 
  1.8000	   3.3400	  0.0000	 
  1.8000	   3.7200	  0.0000	 
  1.8000	   4.1000	  0.0000	 
  1.8000	   4.4800	  0.0000	 
  1.8000	   4.8600	  0.0000	 
  1.8000	   5.2400	  0.0000	 
  1.8000	   5.6200	  0.0000	 
  1.8000	   6.0000	  0.0000	 
  1.8000	   6.3800	  0.0000	 
  1.8000	   6.7600	  0.0000	 
  1.8000	   7.1400	  0.0000	 
  1.8000	   7.5200	  0.0000	 
  1.8000	   7.9000	  0.0000	 
  1.8000	   8.2800	  0.0000	 
  1.8000	   8.6600	  0.0000	 
  1.8000	   9.0400	  0.0000	 
  1.8000	   9.4200	  0.0000	 
  2.0250	   2.8275	  0.0000	 
  2.0250	   3.1800	  0.0000	 
  2.0250	   3.5325	  0.0000	 
  2.0250	   3.8850	  0.0000	 
  2.0250	   4.2375	  0.0000	 
  2.0250	   4.5900	  0.0000	 
  2.0250	   4.9425	  0.0000	 
  2.0250	   5.2950	  0.0000	 
  2.0250	   5.6475	  0.0000	 
  2.0250	   6.0000	  0.0000	 
  2.0250	   6.3525	  0.0000	 
  2.0250	   6.7050	  0.0000	 
  2.0250	   7.0575	  0.0000	 
  2.0250	   7.4100	  0.0000	 
  2.0250	   7.7625	  0.0000	 
  2.0250	   8.1150	  0.0000	 
  2.0250	   8.4675	  0.0000	 
  2.0250	   8.8200	  0.0000	 
  2.0250	   9.1725	  0.0000	 
  2.2500	   3.0750	  0.0000	 
  2.2500	   3.4000	  0.0000	 
  2.2500	   3.7250	  0.0000	 
  2.2500	   4.0500	  0.0000	 
  2.2500	   4.3750	  0.0000	 
  2.2500	   4.7000	  0.0000	 
  2.2500	   5.0250	  0.0000	 
  2.2500	   5.3500	  0.0000	 
  2.2500	   5.6750	  0.0000	 
  2.2500	   6.0000	  0.0000	 
  2.2500	   6.3250	  0.0000	 
  2.2500	   6.6500	  0.0000	 
  2.2500	   6.9750	  0.0000	 
  2.2500	   7.3000	  0.0000	 
  2.2500	   7.6250	  0.0000	 
  2.2500	   7.9500	  0.0000	 
  2.2500	   8.2750	  0.0000	 
  2.2500	   8.6000	  0.0000	 
  2.2500	   8.9250	  0.0000	 
  2.4750	   3.3225	  0.0000	 
  2.4750	   3.6200	  0.0000	 
  2.4750	   3.9175	  0.0000	 
  2.4750	   4.2150	  0.0000	 
  2.4750	   4.5125	  0.0000	 
  2.4750	   4.8100	  0.0000	 
  2.4750	   5.1075	  0.0000	 
  2.4750	   5.4050	  0.0000	 
  2.4750	   5.7025	  0.0000	 
  2.4750	   6.0000	  0.0000	 
  2.4750	   6.2975	  0.0000	 
  2.4750	   6.5950	  0.0000	 
  2.4750	   6.8925	  0.0000	 
  2.4750	   7.1900	  0.0000	 
  2.4750	   7.4875	  0.0000	 
  2.4750	   7.7850	  0.0000	 
  2.4750	   8.0825	  0.0000	 
  2.4750	   8.3800	  0.0000	 
  2.4750	   8.6775	  0.0000	 
  2.7000	   3.5700	  0.0000	 
  2.7000	   3.8400	  0.0000	 
  2.7000	   4.1100	  0.0000	 
  2.7000	   4.3800	  0.0000	 
  2.7000	   4.6500	  0.0000	 
  2.7000	   4.9200	  0.0000	 
  2.7000	   5.1900	  0.0000	 
  2.7000	   5.4600	  0.0000	 
  2.7000	   5.7300	  0.0000	 
  2.7000	   6.0000	  0.0000	 
  2.7000	   6.2700	  0.0000	 
  2.7000	   6.5400	  0.0000	 
  2.7000	   6.8100	  0.0000	 
  2.7000	   7.0800	  0.0000	 
  2.7000	   7.3500	  0.0000	 
  2.7000	   7.6200	  0.0000	 
  2.7000	   7.8900	  0.0000	 
  2.7000	   8.1600	  0.0000	 
  2.7000	   8.4300	  0.0000	 
  2.9250	   3.8175	  0.0000	 
  2.9250	   4.0600	  0.0000	 
  2.9250	   4.3025	  0.0000	 
  2.9250	   4.5450	  0.0000	 
  2.9250	   4.7875	  0.0000	 
  2.9250	   5.0300	  0.0000	 
  2.9250	   5.2725	  0.0000	 
  2.9250	   5.5150	  0.0000	 
  2.9250	   5.7575	  0.0000	 
  2.9250	   6.0000	  0.0000	 
  2.9250	   6.2425	  0.0000	 
  2.9250	   6.4850	  0.0000	 
  2.9250	   6.7275	  0.0000	 
  2.9250	   6.9700	  0.0000	 
  2.9250	   7.2125	  0.0000	 
  2.9250	   7.4550	  0.0000	 
  2.9250	   7.6975	  0.0000	 
  2.9250	   7.9400	  0.0000	 
  2.9250	   8.1825	  0.0000	 
  3.1500	   4.0650	  0.0000	 
  3.1500	   4.2800	  0.0000	 
  3.1500	   4.4950	  0.0000	 
  3.1500	   4.7100	  0.0000	 
  3.1500	   4.9250	  0.0000	 
  3.1500	   5.1400	  0.0000	 
  3.1500	   5.3550	  0.0000	 
  3.1500	   5.5700	  0.0000	 
  3.1500	   5.7850	  0.0000	 
  3.1500	   6.0000	  0.0000	 
  3.1500	   6.2150	  0.0000	 
  3.1500	   6.4300	  0.0000	 
  3.1500	   6.6450	  0.0000	 
  3.1500	   6.8600	  0.0000	 
  3.1500	   7.0750	  0.0000	 
  3.1500	   7.2900	  0.0000	 
  3.1500	   7.5050	  0.0000	 
  3.1500	   7.7200	  0.0000	 
  3.1500	   7.9350	  0.0000	 
  3.3750	   4.3125	  0.0000	 
  3.3750	   4.5000	  0.0000	 
  3.3750	   4.6875	  0.0000	 
  3.3750	   4.8750	  0.0000	 
  3.3750	   5.0625	  0.0000	 
  3.3750	   5.2500	  0.0000	 
  3.3750	   5.4375	  0.0000	 
  3.3750	   5.6250	  0.0000	 
  3.3750	   5.8125	  0.0000	 
  3.3750	   6.0000	  0.0000	 
  3.3750	   6.1875	  0.0000	 
  3.3750	   6.3750	  0.0000	 
  3.3750	   6.5625	  0.0000	 
  3.3750	   6.7500	  0.0000	 
  3.3750	   6.9375	  0.0000	 
  3.3750	   7.1250	  0.0000	 
  3.3750	   7.3125	  0.0000	 
  3.3750	   7.5000	  0.0000	 
  3.3750	   7.6875	  0.0000	 
  3.6000	   4.5600	  0.0000	 
  3.6000	   4.7200	  0.0000	 
  3.6000	   4.8800	  0.0000	 
  3.6000	   5.0400	  0.0000	 
  3.6000	   5.2000	  0.0000	 
  3.6000	   5.3600	  0.0000	 
  3.6000	   5.5200	  0.0000	 
  3.6000	   5.6800	  0.0000	 
  3.6000	   5.8400	  0.0000	 
  3.6000	   6.0000	  0.0000	 
  3.6000	   6.1600	  0.0000	 
  3.6000	   6.3200	  0.0000	 
  3.6000	   6.4800	  0.0000	 
  3.6000	   6.6400	  0.0000	 
  3.6000	   6.8000	  0.0000	 
  3.6000	   6.9600	  0.0000	 
  3.6000	   7.1200	  0.0000	 
  3.6000	   7.2800	  0.0000	 
  3.6000	   7.4400	  0.0000	 
  3.8250	   4.8075	  0.0000	 
  3.8250	   4.9400	  0.0000	 
  3.8250	   5.0725	  0.0000	 
  3.8250	   5.2050	  0.0000	 
  3.8250	   5.3375	  0.0000	 
  3.8250	   5.4700	  0.0000	 
  3.8250	   5.6025	  0.0000	 
[...]
POINT_DATA 	    1451 
VECTORS U float 
 50.0000	   0.0000	   0.0000	
 50.0000	   0.0000	   0.0000	
 50.0000	   0.0000	   0.0000	
 50.0000	   0.0000	   0.0000	
 50.0000	  -0.0000	   0.0000	
 50.0000	  -0.0000	   0.0000	
 50.0000	   0.0000	   0.0000	
 50.0000	  -0.0000	   0.0000	
 50.0000	  -0.0000	   0.0000	
 50.0000	   0.0000	   0.0000	
 50.0000	  -0.0000	   0.0000	
 50.0000	  -0.0000	   0.0000	
 50.0000	   0.0000	   0.0000	
 50.0000	   0.0000	   0.0000	
 50.0000	  -0.0000	   0.0000	
 50.0000	  -0.0000	   0.0000	
 50.0000	   0.0000	   0.0000	
 50.0000	   0.0000	   0.0000	
 50.0000	  -0.0000	   0.0000	
 49.1447	   5.9767	   0.0000	
 50.2906	   6.9146	   0.0000	
 50.2043	  10.9956	   0.0000	
 49.8345	  18.4195	   0.0000	
 50.0084	  10.5650	   0.0000	
 49.6868	  19.9666	   0.0000	
 49.3063	  24.1782	   0.0000	
 49.1731	  30.1234	   0.0000	
 49.7592	  33.5723	   0.0000	
 50.0397	  35.0665	   0.0000	
 49.7208	  34.7475	   0.0000	
 50.8126	  33.9102	   0.0000	
 50.4073	  28.8610	   0.0000	
 50.3767	  25.7980	   0.0000	
 50.2736	  24.1026	   0.0000	
 49.9690	  16.2396	   0.0000	
 50.0816	  19.0391	   0.0000	
 49.2231	  16.4377	   0.0000	
 50.4873	  16.0410	   0.0000	
 49.6419	  11.6819	   0.0000	
 46.2807	  18.9831	   0.0000	
 44.2412	  32.4921	   0.0000	
 56.2536	  23.8472	   0.0000	
 43.1076	  34.4807	   0.0000	
 46.9115	  38.8618	   0.0000	
 45.3815	  50.0868	   0.0000	
 46.8302	  58.6492	   0.0000	
 48.4783	  62.7944	   0.0000	
 49.2529	  64.9891	   0.0000	
 50.3116	  65.8882	   0.0000	
 51.1555	  65.2830	   0.0000	
 54.4139	  60.4487	   0.0000	
 52.4036	  48.1932	   0.0000	
 50.5336	  46.8506	   0.0000	
 55.7579	  44.0032	   0.0000	
 47.7669	  33.3653	   0.0000	
 52.5767	  35.0866	   0.0000	
 50.8130	  33.9362	   0.0000	
 44.2109	  20.2445	   0.0000	
 39.4253	  43.1154	   0.0000	
 53.3676	  36.1335	   0.0000	
 46.9695	  47.7858	   0.0000	
 43.7528	  48.9541	   0.0000	
 41.3408	  59.9837	   0.0000	
 42.0981	  68.2251	   0.0000	
 45.3513	  71.2182	   0.0000	
 47.6343	  73.8760	   0.0000	
 47.6625	  76.7411	   0.0000	
 49.9859	  81.5902	   0.0000	
 51.1041	  81.4419	   0.0000	
 55.5036	  84.0964	   0.0000	
 59.4533	  79.0455	   0.0000	
 51.7209	  65.6847	   0.0000	
 53.9867	  64.0640	   0.0000	
 56.5306	  62.6008	   0.0000	
 49.7239	  51.7151	   0.0000	
 49.0041	  50.8526	   0.0000	
 25.2231	  45.7266	   0.0000	
 48.2412	  45.4312	   0.0000	
 48.0817	  55.7435	   0.0000	
 43.6724	  62.6185	   0.0000	
 38.9097	  61.5426	   0.0000	
 38.9144	  65.1560	   0.0000	
 41.3060	  66.3621	   0.0000	
 44.6091	  69.1683	   0.0000	
 46.6455	  70.8767	   0.0000	
 47.2836	  72.0401	   0.0000	
 47.4944	  72.1758	   0.0000	
 50.5335	  78.3290	   0.0000	
 53.3515	  78.3457	   0.0000	
 59.7681	  82.1117	   0.0000	
 59.5675	  81.9662	   0.0000	
 53.0404	  78.8088	   0.0000	
 57.6932	  81.1248	   0.0000	
 54.6700	  78.8005	   0.0000	
 54.4665	  66.4881	   0.0000	
 39.1676	  50.5946	   0.0000	
 44.0224	  64.1892	   0.0000	
 41.0362	  71.0455	   0.0000	
 45.7465	  71.2756	   0.0000	
 37.8222	  67.5197	   0.0000	
 39.2295	  66.1879	   0.0000	
 40.6720	  68.0176	   0.0000	
 44.2165	  68.9687	   0.0000	
 45.8655	  70.8144	   0.0000	
 46.3815	  72.5634	   0.0000	
 47.9371	  74.3331	   0.0000	
 47.1993	  72.9323	   0.0000	
 52.7227	  79.7901	   0.0000	
 57.0483	  78.7102	   0.0000	
 59.1953	  83.9327	   0.0000	
 52.4343	  90.5146	   0.0000	
 53.7741	  91.7833	   0.0000	
 57.6491	  96.3078	   0.0000	
 61.1402	  98.0238	   0.0000	
 35.8395	  69.2159	   0.0000	
 41.9821	  78.1384	   0.0000	
 43.2048	  73.6688	   0.0000	
 45.4334	  75.7910	   0.0000	
 38.9963	  69.3667	   0.0000	
 38.8958	  70.0654	   0.0000	
 41.0939	  69.6527	   0.0000	
 43.4493	  71.6851	   0.0000	
 45.2408	  73.5144	   0.0000	
 44.9845	  76.0550	   0.0000	
 46.8138	  79.0594	   0.0000	
 48.0165	  80.8902	   0.0000	
 48.0200	  79.5843	   0.0000	
 56.4491	  86.2495	   0.0000	
 56.2418	  86.3637	   0.0000	
 50.6480	  95.6637	   0.0000	
 51.5326	  99.2037	   0.0000	
 53.0834	 104.5264	   0.0000	
 52.2137	 115.0133	   0.0000	
 35.8103	  64.8481	   0.0000	
 45.2634	  67.1954	   0.0000	
 42.9544	  66.0135	   0.0000	
 45.6755	  67.9622	   0.0000	
 38.3748	  66.1169	   0.0000	
 39.8090	  65.1297	   0.0000	
 40.1605	  67.2126	   0.0000	
 42.6338	  69.8477	   0.0000	
 43.6809	  72.8010	   0.0000	
 44.3390	  74.1941	   0.0000	
 45.3718	  74.9954	   0.0000	
 46.6326	  77.8113	   0.0000	
 48.9219	  79.6651	   0.0000	
 50.9113	  76.6736	   0.0000	
 56.5017	  84.0865	   0.0000	
 49.0847	  86.0230	   0.0000	
 49.0957	  88.2934	   0.0000	
 49.6007	  91.7784	   0.0000	
 46.1676	 101.6935	   0.0000	
 40.3250	  59.7660	   0.0000	
 44.8045	  64.5599	   0.0000	
 42.5419	  63.7321	   0.0000	
 43.2623	  69.7187	   0.0000	
 39.3365	  65.7210	   0.0000	
 38.5381	  67.5000	   0.0000	
 39.1707	  69.6781	   0.0000	
 41.1286	  72.4391	   0.0000	
 42.9123	  74.2657	   0.0000	
 43.0889	  76.3455	   0.0000	
 45.0154	  78.4386	   0.0000	
 44.7932	  78.5433	   0.0000	
 47.3308	  81.7202	   0.0000	
 52.5815	  81.9368	   0.0000	
 50.6805	  79.1565	   0.0000	
 51.3476	  89.2161	   0.0000	
 48.6356	  85.8089	   0.0000	
 47.8223	  86.5038	   0.0000	
 42.4291	  94.7824	   0.0000	
 40.6133	  58.6711	   0.0000	
 43.5767	  63.4800	   0.0000	
 39.1236	  65.4865	   0.0000	
 43.9476	  67.7049	   0.0000	
 37.8010	  66.6898	   0.0000	
 37.5711	  68.2788	   0.0000	
 37.8682	  70.3894	   0.0000	
 40.2870	  72.4658	   0.0000	
 41.4908	  75.0228	   0.0000	
 41.6071	  77.4738	   0.0000	
 43.8205	  79.7377	   0.0000	
 44.8144	  81.3621	   0.0000	
 44.8528	  81.3686	   0.0000	
 50.9997	  83.0015	   0.0000	
 53.5567	  83.6575	   0.0000	
 44.8885	  83.8726	   0.0000	
 51.7506	  90.1431	   0.0000	
 49.0366	  87.0345	   0.0000	
 40.7242	  91.8742	   0.0000	
 39.4679	  59.2289	   0.0000	
 39.6577	  65.3081	   0.0000	
 40.4641	  63.8361	   0.0000	
 41.4777	  68.2715	   0.0000	
 36.4831	  67.6257	   0.0000	
 36.3537	  69.2210	   0.0000	
 36.9352	  71.0371	   0.0000	
 38.7143	  73.8790	   0.0000	
 39.9301	  76.5369	   0.0000	
 40.4519	  78.1157	   0.0000	
 42.5348	  79.2670	   0.0000	
 43.4445	  80.6713	   0.0000	
 45.0029	  82.2395	   0.0000	
 48.3905	  80.0065	   0.0000	
 51.9934	  82.1344	   0.0000	
 49.4669	  85.3360	   0.0000	
 43.0438	  83.6553	   0.0000	
 52.7839	  89.0885	   0.0000	
 44.3722	  90.3661	   0.0000	
 35.7361	  61.7158	   0.0000	
 41.6981	  63.4855	   0.0000	
 37.5533	  63.6144	   0.0000	
 39.3857	  68.0744	   0.0000	
 35.0715	  67.6439	   0.0000	
 35.2004	  69.4832	   0.0000	
 35.5047	  71.3988	   0.0000	
 37.0440	  73.7247	   0.0000	
 38.6738	  75.7676	   0.0000	
 38.6240	  78.2961	   0.0000	
 42.0980	  80.7800	   0.0000	
 42.2755	  80.9282	   0.0000	
 43.8428	  82.3672	   0.0000	
 49.1321	  81.5670	   0.0000	
 48.8246	  80.5845	   0.0000	
 48.6763	  85.6560	   0.0000	
 47.4245	  87.6148	   0.0000	
 42.6524	  86.5288	   0.0000	
 49.7313	  93.1727	   0.0000	
 39.8400	  60.8753	   0.0000	
 38.1956	  64.0968	   0.0000	
 35.2964	  65.4001	   0.0000	
 36.8379	  69.6043	   0.0000	
 33.6712	  69.8454	   0.0000	
 33.9073	  71.5376	   0.0000	
 34.1591	  73.3932	   0.0000	
 35.7920	  75.4710	   0.0000	
 36.5585	  78.3709	   0.0000	
 35.9644	  81.7643	   0.0000	
 39.8861	  84.8084	   0.0000	
 42.2103	  86.6691	   0.0000	
 42.5940	  86.3691	   0.0000	
 47.7439	  85.3062	   0.0000	
 49.6325	  86.2493	   0.0000	
 44.5299	  88.6175	   0.0000	
 45.6858	  93.6503	   0.0000	
 49.0483	  91.7995	   0.0000	
 38.3437	  91.3862	   0.0000	
 35.8890	  57.5946	   0.0000	
 33.6584	  59.9936	   0.0000	
 32.5581	  62.7072	   0.0000	
 34.0779	  68.0919	   0.0000	
 31.7726	  69.7630	   0.0000	
 32.5853	  71.9438	   0.0000	
 32.2570	  74.2531	   0.0000	
 33.2907	  77.8319	   0.0000	
 33.2459	  82.0349	   0.0000	
 36.6349	  81.3140	   0.0000	
 37.7736	  80.0525	   0.0000	
 39.9599	  82.0477	   0.0000	
 43.1486	  84.1408	   0.0000	
 46.8907	  81.8387	   0.0000	
 47.0865	  83.7251	   0.0000	
 45.7067	  87.9110	   0.0000	
 40.4443	  90.1627	   0.0000	
 50.1125	  86.6753	   0.0000	
 51.2693	  79.9005	   0.0000	
 31.1967	  60.3237	   0.0000	
 29.0889	  62.5222	   0.0000	
 28.1854	  66.0831	   0.0000	
 31.0934	  69.9601	   0.0000	
 29.4285	  71.2405	   0.0000	
 29.8697	  74.4217	   0.0000	
 29.3959	  77.1329	   0.0000	
 29.0251	  80.3869	   0.0000	
 34.5113	  79.8468	   0.0000	
 33.6087	  81.5406	   0.0000	
 39.6327	  85.0709	   0.0000	
 37.0302	  82.9108	   0.0000	
 40.5544	  84.8086	   0.0000	
 47.0906	  84.1017	   0.0000	
 43.2239	  86.9982	   0.0000	
 42.6047	  92.7337	   0.0000	
 42.2778	  96.0358	   0.0000	
 47.6728	  88.0439	   0.0000	
 57.2665	  79.2131	   0.0000	
 26.1936	  58.2235	   0.0000	
 22.5929	  64.2493	   0.0000	
 27.0093	  68.0034	   0.0000	
 28.4025	  71.9439	   0.0000	
 26.1496	  74.0295	   0.0000	
 27.1763	  76.5887	   0.0000	
 26.6472	  77.9929	   0.0000	
 32.4467	  75.5835	   0.0000	
 33.3144	  75.5826	   0.0000	
 26.3703	  81.7183	   0.0000	
 34.4826	  88.2193	   0.0000	
 39.6404	  92.0010	   0.0000	
 38.9054	  90.1149	   0.0000	
 42.1386	  91.2894	   0.0000	
 41.9721	  98.2333	   0.0000	
 35.9952	 103.9695	   0.0000	
 41.3080	 102.8454	   0.0000	
 55.3939	  91.5865	   0.0000	
 55.5097	  80.2483	   0.0000	
 19.7803	  54.0502	   0.0000	
 22.6570	  57.2855	   0.0000	
 12.4541	  67.0996	   0.0000	
 21.4085	  80.6065	   0.0000	
 23.3362	  85.9157	   0.0000	
 25.6775	  88.6344	   0.0000	
 32.5609	  87.0616	   0.0000	
 33.0264	  86.7166	   0.0000	
 23.6372	  93.6867	   0.0000	
 29.9026	  91.5912	   0.0000	
 25.9618	  88.6884	   0.0000	
 31.2082	  95.8005	   0.0000	
 42.1008	 100.6648	   0.0000	
 36.7161	  98.8609	   0.0000	
 32.6607	 105.9520	   0.0000	
 34.5214	 109.1067	   0.0000	
 50.1265	  97.7311	   0.0000	
 47.7776	  86.2579	   0.0000	
 66.3077	  73.0865	   0.0000	
  2.7804	  46.7818	   0.0000	
 -3.4501	  54.4101	   0.0000	
 11.1407	  63.0318	   0.0000	
 15.3903	  69.0147	   0.0000	
 20.8465	  73.1512	   0.0000	
 32.5306	  74.3551	   0.0000	
 32.7069	  74.3695	   0.0000	
 18.1950	  79.8185	   0.0000	
 27.1530	  79.8548	   0.0000	
 20.9535	  84.2225	   0.0000	
 30.9519	  90.6629	   0.0000	
 16.6297	  89.5911	   0.0000	
 26.8763	  98.3482	   0.0000	
 43.2698	 102.5621	   0.0000	
 23.7289	 111.8303	   0.0000	
 32.8743	 118.2367	   0.0000	
 34.0363	 111.9043	   0.0000	
 64.9646	 104.5186	   0.0000	
 73.6604	  86.6007	   0.0000	
 -5.6695	  61.1874	   0.0000	
  3.3839	  69.3144	   0.0000	
  8.2786	  75.1441	   0.0000	
 21.8451	  79.6245	   0.0000	
 31.5737	  83.8673	   0.0000	
 28.1139	  83.6946	   0.0000	
 11.3168	  92.1681	   0.0000	
 20.2734	  96.0924	   0.0000	
 16.9893	 102.5606	   0.0000	
 12.7697	 107.5640	   0.0000	
 15.4757	 112.0730	   0.0000	
 21.7276	 120.1436	   0.0000	
  2.4912	 125.0420	   0.0000	
 20.3569	 131.0117	   0.0000	
 14.2597	 145.3806	   0.0000	
  8.3356	 157.1104	   0.0000	
 26.1556	 150.9600	   0.0000	
 55.9462	 133.5647	   0.0000	
 67.9725	 108.0349	   0.0000	
 -2.4174	  29.7930	   0.0000	
  4.1779	  35.4208	   0.0000	
 14.0400	  42.0388	   0.0000	
 25.0150	  49.6687	   0.0000	
  0.5338	  58.4825	   0.0000	
  0.5426	  59.2798	   0.0000	
  8.0490	  63.4083	   0.0000	
  0.6400	  67.1862	   0.0000	
  6.2465	  70.6299	   0.0000	
  0.4620	  73.5164	   0.0000	
  5.7605	  76.3617	   0.0000	
  0.7775	  79.4891	   0.0000	
  6.6237	  82.9342	   0.0000	
 -1.0193	  85.4550	   0.0000	
  0.2030	  84.8582	   0.0000	
 -5.8446	  89.4544	   0.0000	
 -0.5743	  87.8250	   0.0000	
 22.0970	  83.7606	   0.0000	
 57.3163	  74.2160	   0.0000	
 -0.0000	  -0.0000	   0.0000	
  0.0000	   0.0000	   0.0000	
 -0.0000	   0.0000	   0.0000	
 -0.0000	   0.0000	   0.0000	
  0.0000	  -0.0000	   0.0000	
 -0.0000	   0.0000	   0.0000	
  0.0000	   0.0000	   0.0000	
  0.0000	  -0.0000	   0.0000	
 -0.0000	  -0.0000	   0.0000	
  0.0000	   0.0000	   0.0000	
  0.0000	   0.0000	   0.0000	
  0.0000	  -0.0000	   0.0000	
 -0.0000	   0.0000	   0.0000	
 -0.0000	   0.0000	   0.0000	
 -0.0000	  -0.0000	   0.0000	
 -0.0000	  -0.0000	   0.0000	
  0.0000	  -0.0000	   0.0000	
 -0.0000	  -0.0000	   0.0000	
  0.0000	   0.0000	   0.0000	
 50.0000	  50.0000	   0.0000	
 50.0000	  -0.0000	   0.0000	
 68.3305	  50.0930	   0.0000	
 49.9971	  16.0160	   0.0000	
 86.1163	  50.1238	   0.0000	
 49.5751	  32.1279	   0.0000	
 82.9069	  55.0032	   0.0000	
 51.7545	  48.6313	   0.0000	
 81.1271	  59.2492	   0.0000	
 53.5542	  65.3930	   0.0000	
 52.8931	  79.2382	   0.0000	
 49.0411	  78.3744	   0.0000	
 49.5306	  78.7074	   0.0000	
 77.9100	 104.6423	   0.0000	
 45.6639	  77.1011	   0.0000	
 66.6800	  93.0695	   0.0000	
 45.7856	  73.2873	   0.0000	
 57.5359	  84.1235	   0.0000	
 49.3098	  68.0703	   0.0000	
 54.0588	  79.5002	   0.0000	
 47.8436	  66.3290	   0.0000	
 52.1616	  76.4331	   0.0000	
 44.3891	  65.3878	   0.0000	
 56.6217	  76.9181	   0.0000	
 38.8236	  64.9020	   0.0000	
 63.7154	  77.8771	   0.0000	
 41.7302	  59.2267	   0.0000	
 49.1832	  67.9946	   0.0000	
 34.7705	  57.3794	   0.0000	
 60.6681	  69.8888	   0.0000	
 27.4174	  55.0292	   0.0000	
 67.1954	  68.5401	   0.0000	
 17.5803	  52.4458	   0.0000	
 68.7575	  63.5881	   0.0000	
 19.0458	  40.9447	   0.0000	
 78.5642	  60.6719	   0.0000	
-20.6772	  50.4057	   0.0000	
112.0429	  70.1257	   0.0000	
 -9.4224	  23.2714	   0.0000	
106.0346	  48.1379	   0.0000	
 -0.0000	   0.0000	   0.0000	
 -0.0000	  -0.0000	   0.0000	
 50.4238	  50.0000	   0.0000	
 86.6446	 155.1248	   0.0000	
 48.3703	  49.3186	   0.0000	
 51.5854	 138.1374	   0.0000	
 46.3079	  48.8332	   0.0000	
 35.6655	 122.8412	   0.0000	
 45.9294	  47.4266	   0.0000	
 25.4306	 109.8959	   0.0000	
 43.5716	  47.0841	   0.0000	
 26.0901	 104.1855	   0.0000	
 43.4732	  45.8972	   0.0000	
 25.3874	  99.4303	   0.0000	
 43.8250	  45.3190	   0.0000	
 26.1518	  96.0144	   0.0000	
 44.5816	  44.2272	   0.0000	
 26.1948	  92.2461	   0.0000	
 43.5472	  43.7313	   0.0000	
 28.8775	  89.1793	   0.0000	
 40.1106	  44.1372	   0.0000	
 32.3230	  85.9745	   0.0000	
 40.4731	  42.6470	   0.0000	
 37.1807	  83.2458	   0.0000	
 46.3860	  39.0848	   0.0000	
 27.6129	  75.0628	   0.0000	
 41.0885	  39.4131	   0.0000	
 37.1416	  73.8713	   0.0000	
 40.7501	  36.5527	   0.0000	
 39.7132	  68.6399	   0.0000	
 38.5885	  32.7193	   0.0000	
 41.0469	  62.7305	   0.0000	
 41.2445	  27.0447	   0.0000	
 46.3294	  54.8010	   0.0000	
 22.6782	  26.3777	   0.0000	
 65.9856	  50.2391	   0.0000	
 18.3344	  18.6728	   0.0000	
 68.9219	  37.8266	   0.0000	
 35.5465	   2.6163	   0.0000	
 61.0252	  21.1351	   0.0000	
 25.1033	   0.5245	   0.0000	
 -1.7530	  -1.2603	   0.0000	
 -0.0000	   0.0000	   0.0000	
 -0.0000	  -0.0000	   0.0000	
 56.7848	  50.0000	   0.0000	
-43.5552	  67.9641	   0.0000	
 52.2466	  50.8064	   0.0000	
-11.9659	  69.4289	   0.0000	
 49.7122	  51.1538	   0.0000	
  2.9485	  69.2982	   0.0000	
 47.0640	  51.9340	   0.0000	
 10.4259	  68.8135	   0.0000	
 47.2507	  52.1778	   0.0000	
 12.4234	  67.4671	   0.0000	
 47.9024	  52.5695	   0.0000	
 12.9315	  66.2015	   0.0000	
 47.3248	  53.3015	   0.0000	
 14.2649	  64.6327	   0.0000	
 46.8595	  53.2105	   0.0000	
 16.2114	  62.7556	   0.0000	
 46.4890	  53.9701	   0.0000	
 17.5888	  61.1063	   0.0000	
 45.4611	  54.5701	   0.0000	
 20.6199	  60.0163	   0.0000	
 51.2206	  54.2321	   0.0000	
 15.4145	  58.2073	   0.0000	
 51.2100	  54.5835	   0.0000	
 17.1920	  55.3756	   0.0000	
 55.1518	  54.5978	   0.0000	
 18.1712	  52.5203	   0.0000	
 57.1949	  55.1873	   0.0000	
  9.8054	  48.7171	   0.0000	
 60.6496	  55.2836	   0.0000	
 14.0902	  45.8233	   0.0000	
 61.5428	  52.4409	   0.0000	
 18.7263	  39.5184	   0.0000	
 59.9434	  51.0876	   0.0000	
 23.3134	  35.0111	   0.0000	
 65.2730	  51.0418	   0.0000	
 27.1267	  30.9191	   0.0000	
 62.2642	  49.7508	   0.0000	
  1.6599	  30.9495	   0.0000	
 38.3429	  49.0576	   0.0000	
  3.2073	  36.3368	   0.0000	
 27.9035	  46.3356	   0.0000	
 -0.1142	  38.6945	   0.0000	
 44.4077	  50.0000	   0.0000	
 11.5449	  54.7109	   0.0000	
 45.8585	  50.9756	   0.0000	
 -2.3400	  59.8642	   0.0000	
 44.2020	  51.2518	   0.0000	
  1.4563	  60.4504	   0.0000	
 42.5219	  51.3011	   0.0000	
  5.2138	  59.8844	   0.0000	
 42.4575	  51.7693	   0.0000	
  6.4843	  59.7869	   0.0000	
 42.7345	  52.3103	   0.0000	
  7.2881	  59.7930	   0.0000	
 41.1393	  52.4431	   0.0000	
 10.1760	  59.0428	   0.0000	
 41.7019	  53.3131	   0.0000	
  8.7548	  59.9745	   0.0000	
 42.9107	  53.9048	   0.0000	
 11.1784	  59.1879	   0.0000	
 42.3081	  54.6291	   0.0000	
 13.1313	  58.8760	   0.0000	
 43.8821	  55.9612	   0.0000	
 14.2308	  59.1274	   0.0000	
 43.9658	  56.8167	   0.0000	
 12.5255	  59.1487	   0.0000	
 45.3125	  58.7480	   0.0000	
  7.1981	  61.0287	   0.0000	
 46.6946	  61.0462	   0.0000	
 11.5162	  61.4102	   0.0000	
 46.7159	  62.5204	   0.0000	
 10.2292	  61.5713	   0.0000	
 54.0174	  67.5481	   0.0000	
  6.4826	  63.4965	   0.0000	
 51.1897	  69.9983	   0.0000	
  9.8734	  62.7559	   0.0000	
 49.9087	  73.3698	   0.0000	
 14.7092	  61.4408	   0.0000	
 51.1340	  77.0264	   0.0000	
 19.5449	  58.9220	   0.0000	
 43.1134	  81.7315	   0.0000	
 19.1868	  65.0941	   0.0000	
 22.9769	  81.8992	   0.0000	
 21.5016	  69.3397	   0.0000	
 45.5127	  50.0000	   0.0000	
 -1.1190	  45.7451	   0.0000	
 45.1976	  49.8048	   0.0000	
  2.5195	  44.9443	   0.0000	
 44.2969	  49.7502	   0.0000	
  5.1841	  44.2267	   0.0000	
 42.9881	  49.4224	   0.0000	
  8.0494	  43.4635	   0.0000	
 43.0080	  49.6537	   0.0000	
  6.7015	  45.1596	   0.0000	
 42.9598	  49.7877	   0.0000	
  5.5603	  47.1347	   0.0000	
 41.7409	  49.3171	   0.0000	
  7.0799	  47.4207	   0.0000	
 41.6757	  49.5406	   0.0000	
  8.0324	  48.4272	   0.0000	
 41.0326	  49.5506	   0.0000	
 10.0634	  48.6452	   0.0000	
 39.9980	  49.1028	   0.0000	
 11.1837	  49.1261	   0.0000	
 41.8878	  50.3374	   0.0000	
  9.8495	  50.9143	   0.0000	
 37.9533	  49.0847	   0.0000	
 15.0753	  49.4449	   0.0000	
 39.4673	  50.7020	   0.0000	
 15.1082	  50.4435	   0.0000	
 39.8655	  51.6164	   0.0000	
 13.0737	  52.3357	   0.0000	
 39.9182	  53.3727	   0.0000	
 14.7247	  54.2002	   0.0000	
 39.2187	  54.2750	   0.0000	
 14.4089	  55.4126	   0.0000	
 38.6844	  56.7333	   0.0000	
 14.6362	  57.8585	   0.0000	
 39.9652	  61.5395	   0.0000	
 14.2785	  61.0320	   0.0000	
 35.9100	  63.8271	   0.0000	
 21.3205	  60.9636	   0.0000	
 41.4783	  70.0539	   0.0000	
 17.1773	  64.3222	   0.0000	
 22.6254	  68.2699	   0.0000	
 37.8994	  58.5160	   0.0000	
 51.4955	  50.0000	   0.0000	
  0.8231	  30.9317	   0.0000	
 48.7369	  49.4340	   0.0000	
  2.2653	  32.3034	   0.0000	
 45.7066	  48.8064	   0.0000	
  3.6683	  33.6887	   0.0000	
 44.7050	  48.7066	   0.0000	
  4.9718	  35.0674	   0.0000	
 45.3812	  49.1874	   0.0000	
  7.2956	  36.0913	   0.0000	
 45.4069	  49.4314	   0.0000	
  7.9571	  38.0274	   0.0000	
 42.2909	  47.4290	   0.0000	
  9.0574	  39.0239	   0.0000	
 41.7695	  47.5372	   0.0000	
 10.2409	  39.2951	   0.0000	
 41.6868	  48.0025	   0.0000	
 10.8880	  40.1378	   0.0000	
 40.6193	  48.0516	   0.0000	
 12.1637	  41.4728	   0.0000	
 40.2803	  48.2715	   0.0000	
 13.7684	  42.5510	   0.0000	
 39.2729	  48.2113	   0.0000	
 15.0100	  43.5812	   0.0000	
 39.1069	  48.8141	   0.0000	
 15.5028	  45.4339	   0.0000	
 38.5698	  49.5085	   0.0000	
 15.6229	  47.3813	   0.0000	
 38.3762	  48.8568	   0.0000	
 16.0617	  47.3498	   0.0000	
 37.3503	  49.2619	   0.0000	
 16.3267	  48.2457	   0.0000	
 34.8870	  48.8984	   0.0000	
 23.4335	  46.4400	   0.0000	
 37.3895	  52.1818	   0.0000	
 17.6524	  52.8401	   0.0000	
 33.8904	  51.5056	   0.0000	
 21.8672	  52.7195	   0.0000	
 30.8010	  51.8254	   0.0000	
 23.0933	  54.9707	   0.0000	
 31.7072	  56.7818	   0.0000	
 21.1088	  57.9413	   0.0000	
  0.0000	   0.0000	   0.0000	
  0.0000	   0.0000	   0.0000	
 -0.0000	   0.0000	   0.0000	
  0.0000	  -0.0000	   0.0000	
 -0.0000	   0.0000	   0.0000	
  0.0000	   0.0000	   0.0000	
 -0.0000	   0.0000	   0.0000	
 -0.0000	  -0.0000	   0.0000	
 -0.0000	  -0.0000	   0.0000	
 -0.0000	   0.0000	   0.0000	
 -0.0000	  -0.0000	   0.0000	
 -0.0000	  -0.0000	   0.0000	
 -0.0000	   0.0000	   0.0000	
 -0.0000	  -0.0000	   0.0000	