# vtk DataFile Version 3.0 
Results 
ASCII 
DATASET UNSTRUCTURED_GRID 
POINTS 	     299 float 
  0.0000	   1.5000	  0.0000	 
  0.0000	   3.0000	  0.0000	 
  0.0000	   4.5000	  0.0000	 
  0.0000	   6.0000	  0.0000	 
  0.0000	   7.5000	  0.0000	 
  0.0000	   9.0000	  0.0000	 
  0.0000	  10.5000	  0.0000	 
  0.5625	   2.0156	  0.0000	 
  0.5625	   3.3438	  0.0000	 
  0.5625	   4.6719	  0.0000	 
  0.5625	   6.0000	  0.0000	 
  0.5625	   7.3281	  0.0000	 
  0.5625	   8.6562	  0.0000	 
  0.5625	   9.9844	  0.0000	 
  1.1250	   2.5312	  0.0000	 
  1.1250	   3.6875	  0.0000	 
  1.1250	   4.8438	  0.0000	 
  1.1250	   6.0000	  0.0000	 
  1.1250	   7.1562	  0.0000	 
  1.1250	   8.3125	  0.0000	 
  1.1250	   9.4688	  0.0000	 
  1.6875	   3.0469	  0.0000	 
  1.6875	   4.0312	  0.0000	 
  1.6875	   5.0156	  0.0000	 
  1.6875	   6.0000	  0.0000	 
  1.6875	   6.9844	  0.0000	 
  1.6875	   7.9688	  0.0000	 
  1.6875	   8.9531	  0.0000	 
  2.2500	   3.5625	  0.0000	 
  2.2500	   4.3750	  0.0000	 
  2.2500	   5.1875	  0.0000	 
  2.2500	   6.0000	  0.0000	 
  2.2500	   6.8125	  0.0000	 
  2.2500	   7.6250	  0.0000	 
  2.2500	   8.4375	  0.0000	 
  2.8125	   4.0781	  0.0000	 
  2.8125	   4.7188	  0.0000	 
  2.8125	   5.3594	  0.0000	 
  2.8125	   6.0000	  0.0000	 
  2.8125	   6.6406	  0.0000	 
  2.8125	   7.2812	  0.0000	 
  2.8125	   7.9219	  0.0000	 
  3.3750	   4.5938	  0.0000	 
  3.3750	   5.0625	  0.0000	 
  3.3750	   5.5312	  0.0000	 
  3.3750	   6.0000	  0.0000	 
  3.3750	   6.4688	  0.0000	 
  3.3750	   6.9375	  0.0000	 
  3.3750	   7.4062	  0.0000	 
  3.9375	   5.1094	  0.0000	 
  3.9375	   5.4062	  0.0000	 
  3.9375	   5.7031	  0.0000	 
  3.9375	   6.0000	  0.0000	 
  3.9375	   6.2969	  0.0000	 
  3.9375	   6.5938	  0.0000	 
  3.9375	   6.8906	  0.0000	 
  4.5000	   5.6250	  0.0000	 
  4.5000	   5.7500	  0.0000	 
  4.5000	   5.8750	  0.0000	 
  4.5000	   6.0000	  0.0000	 
  4.5000	   6.1250	  0.0000	 
  4.5000	   6.2500	  0.0000	 
  4.5000	   6.3750	  0.0000	 
  0.0000	   0.0000	  0.0000	 
  0.0000	  12.0000	  0.0000	 
  0.5625	   0.6875	  0.0000	 
  0.5625	  11.3125	  0.0000	 
  1.1250	   1.3750	  0.0000	 
  1.1250	  10.6250	  0.0000	 
  1.6875	   2.0625	  0.0000	 
  1.6875	   9.9375	  0.0000	 
  2.2500	   2.7500	  0.0000	 
  2.2500	   9.2500	  0.0000	 
  2.8125	   3.4375	  0.0000	 
  2.8125	   8.5625	  0.0000	 
  3.3750	   4.1250	  0.0000	 
  3.3750	   7.8750	  0.0000	 
  3.9375	   4.8125	  0.0000	 
  3.9375	   7.1875	  0.0000	 
  4.5000	   5.5000	  0.0000	 
  4.5000	   6.5000	  0.0000	 
  2.8000	   0.0000	  0.0000	 
  2.8000	  12.0000	  0.0000	 
  3.1375	   0.6875	  0.0000	 
  3.1375	  11.3125	  0.0000	 
  3.4750	   1.3750	  0.0000	 
  3.4750	  10.6250	  0.0000	 
  3.8125	   2.0625	  0.0000	 
  3.8125	   9.9375	  0.0000	 
  4.1500	   2.7500	  0.0000	 
  4.1500	   9.2500	  0.0000	 
  4.4875	   3.4375	  0.0000	 
  4.4875	   8.5625	  0.0000	 
  4.8250	   4.1250	  0.0000	 
  4.8250	   7.8750	  0.0000	 
  5.1625	   4.8125	  0.0000	 
  5.1625	   7.1875	  0.0000	 
  5.5000	   5.5000	  0.0000	 
  5.5000	   6.5000	  0.0000	 
  5.6000	   0.0000	  0.0000	 
  5.6000	  12.0000	  0.0000	 
  5.7125	   0.6875	  0.0000	 
  5.7125	  11.3125	  0.0000	 
  5.8250	   1.3750	  0.0000	 
  5.8250	  10.6250	  0.0000	 
  5.9375	   2.0625	  0.0000	 
  5.9375	   9.9375	  0.0000	 
  6.0500	   2.7500	  0.0000	 
  6.0500	   9.2500	  0.0000	 
  6.1625	   3.4375	  0.0000	 
  6.1625	   8.5625	  0.0000	 
  6.2750	   4.1250	  0.0000	 
  6.2750	   7.8750	  0.0000	 
  6.3875	   4.8125	  0.0000	 
  6.3875	   7.1875	  0.0000	 
  6.5000	   5.5000	  0.0000	 
  6.5000	   6.5000	  0.0000	 
  8.4000	   0.0000	  0.0000	 
  8.4000	  12.0000	  0.0000	 
  8.2875	   0.6875	  0.0000	 
  8.2875	  11.3125	  0.0000	 
  8.1750	   1.3750	  0.0000	 
  8.1750	  10.6250	  0.0000	 
  8.0625	   2.0625	  0.0000	 
  8.0625	   9.9375	  0.0000	 
  7.9500	   2.7500	  0.0000	 
  7.9500	   9.2500	  0.0000	 
  7.8375	   3.4375	  0.0000	 
  7.8375	   8.5625	  0.0000	 
  7.7250	   4.1250	  0.0000	 
  7.7250	   7.8750	  0.0000	 
  7.6125	   4.8125	  0.0000	 
  7.6125	   7.1875	  0.0000	 
  7.5000	   5.5000	  0.0000	 
  7.5000	   6.5000	  0.0000	 
 11.2000	   0.0000	  0.0000	 
 11.2000	  12.0000	  0.0000	 
 10.8625	   0.6875	  0.0000	 
 10.8625	  11.3125	  0.0000	 
 10.5250	   1.3750	  0.0000	 
 10.5250	  10.6250	  0.0000	 
 10.1875	   2.0625	  0.0000	 
 10.1875	   9.9375	  0.0000	 
  9.8500	   2.7500	  0.0000	 
  9.8500	   9.2500	  0.0000	 
  9.5125	   3.4375	  0.0000	 
  9.5125	   8.5625	  0.0000	 
  9.1750	   4.1250	  0.0000	 
  9.1750	   7.8750	  0.0000	 
  8.8375	   4.8125	  0.0000	 
  8.8375	   7.1875	  0.0000	 
  8.5000	   5.5000	  0.0000	 
  8.5000	   6.5000	  0.0000	 
 14.0000	   0.0000	  0.0000	 
 14.0000	  12.0000	  0.0000	 
 13.4375	   0.6875	  0.0000	 
 13.4375	  11.3125	  0.0000	 
 12.8750	   1.3750	  0.0000	 
 12.8750	  10.6250	  0.0000	 
 12.3125	   2.0625	  0.0000	 
 12.3125	   9.9375	  0.0000	 
 11.7500	   2.7500	  0.0000	 
 11.7500	   9.2500	  0.0000	 
 11.1875	   3.4375	  0.0000	 
 11.1875	   8.5625	  0.0000	 
 10.6250	   4.1250	  0.0000	 
 10.6250	   7.8750	  0.0000	 
 10.0625	   4.8125	  0.0000	 
 10.0625	   7.1875	  0.0000	 
  9.5000	   5.5000	  0.0000	 
  9.5000	   6.5000	  0.0000	 
  5.5000	   5.5000	  0.0000	 
  5.5000	   6.5000	  0.0000	 
  5.5000	   5.6567	  0.0000	 
  5.5000	   6.3433	  0.0000	 
  5.5000	   5.8133	  0.0000	 
  5.5000	   6.1867	  0.0000	 
  6.5000	   5.5000	  0.0000	 
  6.5000	   6.5000	  0.0000	 
  6.5000	   5.6567	  0.0000	 
  6.5000	   6.3433	  0.0000	 
  6.5000	   5.8133	  0.0000	 
  6.5000	   6.1867	  0.0000	 
  7.5000	   5.5000	  0.0000	 
  7.5000	   6.5000	  0.0000	 
  7.5000	   5.6567	  0.0000	 
  7.5000	   6.3433	  0.0000	 
  7.5000	   5.8133	  0.0000	 
  7.5000	   6.1867	  0.0000	 
  8.5000	   5.5000	  0.0000	 
  8.5000	   6.5000	  0.0000	 
  8.5000	   5.6567	  0.0000	 
  8.5000	   6.3433	  0.0000	 
  8.5000	   5.8133	  0.0000	 
  8.5000	   6.1867	  0.0000	 
  9.5000	   5.5000	  0.0000	 
  9.5000	   6.5000	  0.0000	 
  9.5000	   5.6567	  0.0000	 
  9.5000	   6.3433	  0.0000	 
  9.5000	   5.8133	  0.0000	 
  9.5000	   6.1867	  0.0000	 
  5.5000	   5.9700	  0.0000	 
  5.5000	   6.0000	  0.0000	 
  5.5000	   6.0300	  0.0000	 
  6.5000	   5.9700	  0.0000	 
  6.5000	   6.0000	  0.0000	 
  6.5000	   6.0300	  0.0000	 
  7.5000	   5.9700	  0.0000	 
  7.5000	   6.0000	  0.0000	 
  7.5000	   6.0300	  0.0000	 
  8.5000	   5.9700	  0.0000	 
  8.5000	   6.0000	  0.0000	 
  8.5000	   6.0300	  0.0000	 
  9.5000	   5.9700	  0.0000	 
  9.5000	   6.0000	  0.0000	 
  9.5000	   6.0300	  0.0000	 
 10.0625	   5.1371	  0.0000	 
 10.0625	   6.8629	  0.0000	 
 10.0625	   5.4617	  0.0000	 
 10.0625	   6.5383	  0.0000	 
 10.0625	   5.7862	  0.0000	 
 10.0625	   6.2138	  0.0000	 
 10.6250	   4.6175	  0.0000	 
 10.6250	   7.3825	  0.0000	 
 10.6250	   5.1100	  0.0000	 
 10.6250	   6.8900	  0.0000	 
 10.6250	   5.6025	  0.0000	 
 10.6250	   6.3975	  0.0000	 
 11.1875	   4.0979	  0.0000	 
 11.1875	   7.9021	  0.0000	 
 11.1875	   4.7583	  0.0000	 
 11.1875	   7.2417	  0.0000	 
 11.1875	   5.4188	  0.0000	 
 11.1875	   6.5812	  0.0000	 
 11.7500	   3.5783	  0.0000	 
 11.7500	   8.4217	  0.0000	 
 11.7500	   4.4067	  0.0000	 
 11.7500	   7.5933	  0.0000	 
 11.7500	   5.2350	  0.0000	 
 11.7500	   6.7650	  0.0000	 
 12.3125	   3.0587	  0.0000	 
 12.3125	   8.9413	  0.0000	 
 12.3125	   4.0550	  0.0000	 
 12.3125	   7.9450	  0.0000	 
 12.3125	   5.0512	  0.0000	 
 12.3125	   6.9488	  0.0000	 
 12.8750	   2.5392	  0.0000	 
 12.8750	   9.4608	  0.0000	 
 12.8750	   3.7033	  0.0000	 
 12.8750	   8.2967	  0.0000	 
 12.8750	   4.8675	  0.0000	 
 12.8750	   7.1325	  0.0000	 
 13.4375	   2.0196	  0.0000	 
 13.4375	   9.9804	  0.0000	 
 13.4375	   3.3517	  0.0000	 
 13.4375	   8.6483	  0.0000	 
 13.4375	   4.6837	  0.0000	 
 13.4375	   7.3163	  0.0000	 
 14.0000	   1.5000	  0.0000	 
 14.0000	  10.5000	  0.0000	 
 14.0000	   3.0000	  0.0000	 
 14.0000	   9.0000	  0.0000	 
 14.0000	   4.5000	  0.0000	 
 14.0000	   7.5000	  0.0000	 
 10.0625	   6.0000	  0.0000	 
 10.6250	   6.0000	  0.0000	 
 11.1875	   6.0000	  0.0000	 
 11.7500	   6.0000	  0.0000	 
 12.3125	   6.0000	  0.0000	 
 12.8750	   6.0000	  0.0000	 
 13.4375	   6.0000	  0.0000	 
 14.0000	   6.0000	  0.0000	 
 15.8333	   0.0000	  0.0000	 
 15.8333	   1.5000	  0.0000	 
 15.8333	   3.0000	  0.0000	 
 15.8333	   4.5000	  0.0000	 
 15.8333	   6.0000	  0.0000	 
 15.8333	   7.5000	  0.0000	 
 15.8333	   9.0000	  0.0000	 
 15.8333	  10.5000	  0.0000	 
 15.8333	  12.0000	  0.0000	 
 17.6667	   0.0000	  0.0000	 
 17.6667	   1.5000	  0.0000	 
 17.6667	   3.0000	  0.0000	 
 17.6667	   4.5000	  0.0000	 
 17.6667	   6.0000	  0.0000	 
 17.6667	   7.5000	  0.0000	 
 17.6667	   9.0000	  0.0000	 
 17.6667	  10.5000	  0.0000	 
 17.6667	  12.0000	  0.0000	 
 19.5000	   0.0000	  0.0000	 
 19.5000	   1.5000	  0.0000	 
 19.5000	   3.0000	  0.0000	 
 19.5000	   4.5000	  0.0000	 
 19.5000	   6.0000	  0.0000	 
 19.5000	   7.5000	  0.0000	 
 19.5000	   9.0000	  0.0000	 
 19.5000	  10.5000	  0.0000	 
 19.5000	  12.0000	  0.0000	 

CELLS 	     528 	    2112 
       3	       30	      37	       31	
       3	      275	     271	      262	
       3	       34	      41	       74	
       3	        6	      13	       68	
       3	      194	     192	      186	
       3	      182	     188	      180	
       3	        5	      13	        6	
       3	       23	      22	       29	
       3	       91	      93	       75	
       3	       20	      13	        5	
       3	       67	      65	       81	
       3	       70	      84	       68	
       3	        0	      63	       65	
       3	       26	      25	       33	
       3	       20	       5	       12	
       3	       55	      47	       54	
       3	       20	      70	       13	
       3	       73	      28	       71	
       3	      102	     104	      122	
       3	      127	     129	      109	
       3	      140	     160	      138	
       3	      241	     235	      243	
       3	      277	     261	      263	
[...]
POINT_DATA 	     299 
VECTORS U float 
 50.0000	   0.0000	   0.0000	
 50.0000	   0.0000	   0.0000	
 50.0000	  -0.0000	   0.0000	
 50.0000	   0.0000	   0.0000	
 50.0000	  -0.0000	   0.0000	
 50.0000	   0.0000	   0.0000	
 50.0000	   0.0000	   0.0000	
 48.4023	  17.7899	   0.0000	
 50.1110	  16.3173	   0.0000	
 47.2842	  29.5619	   0.0000	
 45.1401	  44.9064	   0.0000	
 54.9069	  50.9493	   0.0000	
 47.1897	  32.3947	   0.0000	
 52.2074	  45.5715	   0.0000	
 53.7667	  38.6679	   0.0000	
 42.6295	  39.8901	   0.0000	
 36.3461	  67.8279	   0.0000	
 43.4429	  75.9169	   0.0000	
 50.8641	  79.0191	   0.0000	
 59.8053	  84.5010	   0.0000	
 40.8890	  78.0094	   0.0000	
 52.4818	  66.8891	   0.0000	
 28.6909	  71.4938	   0.0000	
 32.2384	  77.7431	   0.0000	
 41.0869	  81.8444	   0.0000	
 50.6724	  85.6264	   0.0000	
 50.8308	  87.4708	   0.0000	
 46.9380	 109.7893	   0.0000	
 37.1620	  69.8602	   0.0000	
 27.2583	  65.7377	   0.0000	
 30.5758	  73.0783	   0.0000	
 39.6679	  78.2261	   0.0000	
 41.9256	  83.0351	   0.0000	
 53.6283	  88.7202	   0.0000	
 36.9672	  87.0230	   0.0000	
 34.9627	  79.2890	   0.0000	
 22.1551	  76.7768	   0.0000	
 29.1115	  75.9597	   0.0000	
 44.3215	  69.6515	   0.0000	
 32.2444	  72.0447	   0.0000	
 45.1503	  94.4629	   0.0000	
 51.9090	 102.2002	   0.0000	
 26.6979	  69.2895	   0.0000	
 23.2903	  72.0315	   0.0000	
 40.7008	  76.8111	   0.0000	
 12.3575	 100.7554	   0.0000	
 22.2386	 129.9826	   0.0000	
 14.0195	 145.1582	   0.0000	
 45.3637	 130.7374	   0.0000	
  9.1872	  53.3906	   0.0000	
 23.6530	  66.6742	   0.0000	
 -0.5176	  78.4975	   0.0000	
  4.4140	  82.6656	   0.0000	
 -4.6072	  82.1975	   0.0000	
  4.7287	  85.1825	   0.0000	
 31.1299	  81.0624	   0.0000	
  0.0000	  -0.0000	   0.0000	
 -0.0000	  -0.0000	   0.0000	
 -0.0000	  -0.0000	   0.0000	
 -0.0000	   0.0000	   0.0000	
  0.0000	   0.0000	   0.0000	
 -0.0000	   0.0000	   0.0000	
  0.0000	  -0.0000	   0.0000	
 50.0000	  50.0000	   0.0000	
 50.0000	   0.0000	   0.0000	
 70.1054	  51.6101	   0.0000	
 54.2714	  39.8092	   0.0000	
 82.7355	  57.8574	   0.0000	
 47.3195	  73.7901	   0.0000	
 57.5773	  72.2761	   0.0000	
 66.4918	  88.1258	   0.0000	
 58.7324	  69.4163	   0.0000	
 64.3578	  80.0463	   0.0000	
 36.7942	  76.7944	   0.0000	
 52.5731	  69.8405	   0.0000	
 30.5555	  63.5936	   0.0000	
 90.3778	  86.6742	   0.0000	
 17.2412	  51.6374	   0.0000	
 74.0013	  62.9702	   0.0000	
 -0.0000	  -0.0000	   0.0000	
 -0.0000	   0.0000	   0.0000	
 40.0397	  50.0000	   0.0000	
 82.9295	 146.9348	   0.0000	
 65.1034	  41.9644	   0.0000	
 13.4779	 113.0708	   0.0000	
 45.4533	  48.8163	   0.0000	
 27.3154	 100.5489	   0.0000	
 49.0515	  47.9075	   0.0000	
 36.9687	  92.5148	   0.0000	
 40.6230	  43.9278	   0.0000	
 33.6286	  81.2925	   0.0000	
 41.2969	  35.9439	   0.0000	
 50.3641	  62.2569	   0.0000	
 20.0369	  31.2421	   0.0000	
 78.5666	  43.3219	   0.0000	
 64.2624	   0.7286	   0.0000	
 17.1863	  -0.5822	   0.0000	
 -0.0000	   0.0000	   0.0000	
  0.0000	  -0.0000	   0.0000	
 73.0107	  50.0000	   0.0000	
-21.3198	  68.5214	   0.0000	
 45.9147	  55.7714	   0.0000	
 14.5086	  74.7456	   0.0000	
 46.3154	  56.4023	   0.0000	
  8.5523	  69.5492	   0.0000	
 53.1595	  57.9264	   0.0000	
 20.6879	  63.0307	   0.0000	
 56.8089	  58.0825	   0.0000	
  4.7920	  55.9796	   0.0000	
 55.6845	  59.3261	   0.0000	
 16.6174	  49.0404	   0.0000	
 67.9270	  53.9813	   0.0000	
 12.2523	  27.8451	   0.0000	
 85.3266	  61.5218	   0.0000	
  5.0817	  33.9014	   0.0000	
 28.1263	  52.5001	   0.0000	
  5.7007	  43.7014	   0.0000	
 49.9806	  50.0000	   0.0000	
  8.3700	  57.9796	   0.0000	
 47.4656	  49.8704	   0.0000	
  7.8111	  57.2615	   0.0000	
 46.6897	  49.6391	   0.0000	
  5.8653	  57.2430	   0.0000	
 44.5529	  49.9623	   0.0000	
  5.9850	  58.9724	   0.0000	
 49.0717	  53.6796	   0.0000	
 12.3248	  61.9344	   0.0000	
 41.1221	  56.5076	   0.0000	
 14.5667	  64.4350	   0.0000	
 51.6066	  64.2761	   0.0000	
 -5.9055	  68.4655	   0.0000	
 60.6162	  76.9186	   0.0000	
 21.8082	  66.6913	   0.0000	
 40.4589	  88.9834	   0.0000	
 19.1759	  72.6758	   0.0000	
 46.7733	  50.0000	   0.0000	
 -0.0109	  46.7607	   0.0000	
 45.8506	  51.0624	   0.0000	
  6.0999	  46.3264	   0.0000	
 45.0548	  51.8607	   0.0000	
  5.4519	  47.9327	   0.0000	
 42.8248	  52.0939	   0.0000	
  8.9959	  49.8416	   0.0000	
 41.2615	  53.0185	   0.0000	
 13.9900	  51.1560	   0.0000	
 39.1490	  54.0366	   0.0000	
 16.3564	  51.1069	   0.0000	
 40.8749	  54.8080	   0.0000	
  4.9888	  55.9135	   0.0000	
 48.2624	  62.3965	   0.0000	
 19.7830	  65.9158	   0.0000	
 28.3087	  70.0689	   0.0000	
 30.0424	  63.1231	   0.0000	
 62.6432	  50.0000	   0.0000	
  0.7993	  30.4019	   0.0000	
 55.0099	  46.0758	   0.0000	
  4.1217	  33.9707	   0.0000	
 45.3166	  41.5300	   0.0000	
  7.8789	  37.3906	   0.0000	
 45.4954	  44.7125	   0.0000	
  8.4574	  40.6906	   0.0000	
 42.5509	  45.9317	   0.0000	
 13.8778	  43.0269	   0.0000	
 40.2442	  47.5475	   0.0000	
 16.8665	  45.8038	   0.0000	
 39.8665	  49.7218	   0.0000	
 14.4215	  50.4371	   0.0000	
 39.7356	  52.0051	   0.0000	
 32.1082	  56.3017	   0.0000	
 21.7030	  60.1070	   0.0000	
 27.8950	  67.2577	   0.0000	
  0.0000	   0.0000	   0.0000	
  0.0000	   0.0000	   0.0000	
  0.0000	  -0.0000	   0.0000	
  0.0000	   0.0000	   0.0000	
  0.0000	  -0.0000	   0.0000	
 -0.0000	  -0.0000	   0.0000	
  0.0000	   0.0000	   0.0000	
  0.0000	   0.0000	   0.0000	
  1.5515	  48.5703	   0.0000	
 -6.6293	  45.3429	   0.0000	
  1.7494	  46.0421	   0.0000	
 17.0866	  44.2343	   0.0000	
  0.0000	   0.0000	   0.0000	
  0.0000	   0.0000	   0.0000	
 33.3536	  89.8894	   0.0000	
 13.0666	  77.6815	   0.0000	
  1.4815	  88.1836	   0.0000	
 17.4953	  80.8786	   0.0000	
  0.0000	   0.0000	   0.0000	
  0.0000	   0.0000	   0.0000	
 20.1255	  72.4790	   0.0000	
 31.4238	  65.6119	   0.0000	
 33.4818	  70.7026	   0.0000	
 40.2380	  64.8876	   0.0000	
  0.0000	   0.0000	   0.0000	
  0.0000	   0.0000	   0.0000	
 23.0375	  60.9193	   0.0000	
 27.5146	  66.7097	   0.0000	
 34.2175	  59.8105	   0.0000	
 30.8955	  64.2698	   0.0000	
 -0.0000	   0.0000	   0.0000	
 -0.0000	  -0.0000	   0.0000	
  0.0000	  -0.0000	   0.0000	
 -2.3824	  47.1419	   0.0000	
 -9.6168	  47.0581	   0.0000	
 -8.4845	  48.0098	   0.0000	
 10.2784	  84.2489	   0.0000	
 19.8964	  83.0445	   0.0000	
  4.5480	  83.5679	   0.0000	
 23.1631	  69.1822	   0.0000	
 38.9465	  68.0992	   0.0000	
 28.1341	  68.1691	   0.0000	
 24.7466	  62.3800	   0.0000	
 31.9792	  61.0779	   0.0000	
 30.1791	  63.2647	   0.0000	
 31.6926	  53.3158	   0.0000	
 27.8639	  53.4049	   0.0000	
 22.1520	  51.6967	   0.0000	
 23.2310	  50.6769	   0.0000	
 29.2631	  51.0022	   0.0000	
 26.7387	  49.5523	   0.0000	
 39.5761	  51.7805	   0.0000	
 28.0635	  53.0418	   0.0000	
 31.9035	  53.8113	   0.0000	
 23.8544	  49.2011	   0.0000	
 26.2723	  50.3882	   0.0000	
 24.8808	  51.0099	   0.0000	
 37.6836	  49.8748	   0.0000	
 18.0697	  49.6560	   0.0000	
 35.7476	  51.9402	   0.0000	
 25.3252	  46.1949	   0.0000	
 30.3802	  52.2581	   0.0000	
 25.3219	  48.0480	   0.0000	
 38.4766	  46.7297	   0.0000	
 19.0428	  44.0998	   0.0000	
 36.2988	  47.2476	   0.0000	
 19.8591	  46.5144	   0.0000	
 31.7579	  47.6947	   0.0000	
 26.6653	  44.9054	   0.0000	
 40.5325	  44.8405	   0.0000	
 17.3082	  41.9505	   0.0000	
 37.3501	  44.6161	   0.0000	
 20.7348	  41.8070	   0.0000	
 32.5848	  44.8217	   0.0000	
 24.7507	  44.8140	   0.0000	
 42.9037	  44.6564	   0.0000	
 13.0469	  39.4813	   0.0000	
 38.6223	  43.3413	   0.0000	
 19.7719	  38.0650	   0.0000	
 33.3844	  43.7495	   0.0000	
 25.1700	  40.4258	   0.0000	
 42.9324	  41.6841	   0.0000	
 10.8858	  35.5243	   0.0000	
 40.6359	  41.5966	   0.0000	
 17.9005	  36.7490	   0.0000	
 34.0181	  41.4336	   0.0000	
 25.8025	  37.3497	   0.0000	
 47.7405	  47.1580	   0.0000	
  9.1121	  30.5719	   0.0000	
 42.1904	  39.6773	   0.0000	
 16.4094	  31.7339	   0.0000	
 35.5606	  38.1716	   0.0000	
 24.7367	  32.7137	   0.0000	
 27.6817	  50.7562	   0.0000	
 29.6422	  50.7127	   0.0000	
 29.2321	  49.4621	   0.0000	
 30.3908	  46.3810	   0.0000	
 31.6268	  44.7710	   0.0000	
 31.4035	  42.6561	   0.0000	
 32.2646	  40.2282	   0.0000	
 33.1171	  32.5767	   0.0000	
 66.2889	  50.0000	   0.0000	
 57.8599	  41.1593	   0.0000	
 45.9125	  36.1471	   0.0000	
 44.0430	  26.9821	   0.0000	
 33.4934	  25.4808	   0.0000	
 25.8256	  24.2975	   0.0000	
 17.3154	  23.7367	   0.0000	
  9.1204	  23.9437	   0.0000	
  0.3370	  24.1497	   0.0000	
 77.6461	  50.0000	   0.0000	
 67.5651	  40.3978	   0.0000	
 61.9044	  23.2654	   0.0000	
 48.2096	  16.2100	   0.0000	
 36.1647	  12.2399	   0.0000	
 27.1217	   9.9029	   0.0000	
 17.6351	   8.8265	   0.0000	
  9.1858	   8.2458	   0.0000	
  0.1180	   8.3011	   0.0000	
 90.7643	  50.0000	   0.0000	
 91.6833	  29.2391	   0.0000	
 73.7050	  17.9840	   0.0000	
 55.0175	  11.5858	   0.0000	
 40.4836	   7.2788	   0.0000	
 29.1508	   5.2757	   0.0000	
 18.8091	   4.1362	   0.0000	
  9.3237	   3.8577	   0.0000	
  2.1259	   2.2031	   0.0000	
