# vtk DataFile Version 3.0 
Results 
ASCII 
DATASET UNSTRUCTURED_GRID 
POINTS 	     299 float 
  0.0000	   1.5000	  0.0000	 
  0.0000	   3.0000	  0.0000	 
  0.0000	   4.5000	  0.0000	 
  0.0000	   6.0000	  0.0000	 
  0.0000	   7.5000	  0.0000	 
  0.0000	   9.0000	  0.0000	 
  0.0000	  10.5000	  0.0000	 
  0.5625	   2.0156	  0.0000	 
  0.5625	   3.3438	  0.0000	 
  0.5625	   4.6719	  0.0000	 
  0.5625	   6.0000	  0.0000	 
  0.5625	   7.3281	  0.0000	 
  0.5625	   8.6562	  0.0000	 
  0.5625	   9.9844	  0.0000	 
  1.1250	   2.5312	  0.0000	 
  1.1250	   3.6875	  0.0000	 
  1.1250	   4.8438	  0.0000	 
  1.1250	   6.0000	  0.0000	 
  1.1250	   7.1562	  0.0000	 
  1.1250	   8.3125	  0.0000	 
  1.1250	   9.4688	  0.0000	 
  1.6875	   3.0469	  0.0000	 
  1.6875	   4.0312	  0.0000	 
  1.6875	   5.0156	  0.0000	 
  1.6875	   6.0000	  0.0000	 
  1.6875	   6.9844	  0.0000	 
  1.6875	   7.9688	  0.0000	 
  1.6875	   8.9531	  0.0000	 
  2.2500	   3.5625	  0.0000	 
  2.2500	   4.3750	  0.0000	 
  2.2500	   5.1875	  0.0000	 
  2.2500	   6.0000	  0.0000	 
  2.2500	   6.8125	  0.0000	 
  2.2500	   7.6250	  0.0000	 
  2.2500	   8.4375	  0.0000	 
  2.8125	   4.0781	  0.0000	 
  2.8125	   4.7188	  0.0000	 
  2.8125	   5.3594	  0.0000	 
  2.8125	   6.0000	  0.0000	 
  2.8125	   6.6406	  0.0000	 
  2.8125	   7.2812	  0.0000	 
  2.8125	   7.9219	  0.0000	 
  3.3750	   4.5938	  0.0000	 
  3.3750	   5.0625	  0.0000	 
  3.3750	   5.5312	  0.0000	 
  3.3750	   6.0000	  0.0000	 
  3.3750	   6.4688	  0.0000	 
  3.3750	   6.9375	  0.0000	 
  3.3750	   7.4062	  0.0000	 
  3.9375	   5.1094	  0.0000	 
  3.9375	   5.4062	  0.0000	 
  3.9375	   5.7031	  0.0000	 
  3.9375	   6.0000	  0.0000	 
  3.9375	   6.2969	  0.0000	 
  3.9375	   6.5938	  0.0000	 
  3.9375	   6.8906	  0.0000	 
  4.5000	   5.6250	  0.0000	 
  4.5000	   5.7500	  0.0000	 
  4.5000	   5.8750	  0.0000	 
  4.5000	   6.0000	  0.0000	 
  4.5000	   6.1250	  0.0000	 
  4.5000	   6.2500	  0.0000	 
  4.5000	   6.3750	  0.0000	 
  0.0000	   0.0000	  0.0000	 
  0.0000	  12.0000	  0.0000	 
  0.5625	   0.6875	  0.0000	 
  0.5625	  11.3125	  0.0000	 
  1.1250	   1.3750	  0.0000	 
  1.1250	  10.6250	  0.0000	 
  1.6875	   2.0625	  0.0000	 
  1.6875	   9.9375	  0.0000	 
  2.2500	   2.7500	  0.0000	 
  2.2500	   9.2500	  0.0000	 
  2.8125	   3.4375	  0.0000	 
  2.8125	   8.5625	  0.0000	 
  3.3750	   4.1250	  0.0000	 
  3.3750	   7.8750	  0.0000	 
  3.9375	   4.8125	  0.0000	 
  3.9375	   7.1875	  0.0000	 
  4.5000	   5.5000	  0.0000	 
  4.5000	   6.5000	  0.0000	 
  2.8000	   0.0000	  0.0000	 
  2.8000	  12.0000	  0.0000	 
  3.1375	   0.6875	  0.0000	 
  3.1375	  11.3125	  0.0000	 
  3.4750	   1.3750	  0.0000	 
  3.4750	  10.6250	  0.0000	 
  3.8125	   2.0625	  0.0000	 
  3.8125	   9.9375	  0.0000	 
  4.1500	   2.7500	  0.0000	 
  4.1500	   9.2500	  0.0000	 
  4.4875	   3.4375	  0.0000	 
  4.4875	   8.5625	  0.0000	 
  4.8250	   4.1250	  0.0000	 
  4.8250	   7.8750	  0.0000	 
  5.1625	   4.8125	  0.0000	 
  5.1625	   7.1875	  0.0000	 
  5.5000	   5.5000	  0.0000	 
  5.5000	   6.5000	  0.0000	 
  5.6000	   0.0000	  0.0000	 
  5.6000	  12.0000	  0.0000	 
  5.7125	   0.6875	  0.0000	 
  5.7125	  11.3125	  0.0000	 
  5.8250	   1.3750	  0.0000	 
  5.8250	  10.6250	  0.0000	 
  5.9375	   2.0625	  0.0000	 
  5.9375	   9.9375	  0.0000	 
  6.0500	   2.7500	  0.0000	 
  6.0500	   9.2500	  0.0000	 
  6.1625	   3.4375	  0.0000	 
  6.1625	   8.5625	  0.0000	 
  6.2750	   4.1250	  0.0000	 
  6.2750	   7.8750	  0.0000	 
  6.3875	   4.8125	  0.0000	 
  6.3875	   7.1875	  0.0000	 
  6.5000	   5.5000	  0.0000	 
  6.5000	   6.5000	  0.0000	 
  8.4000	   0.0000	  0.0000	 
  8.4000	  12.0000	  0.0000	 
  8.2875	   0.6875	  0.0000	 
  8.2875	  11.3125	  0.0000	 
  8.1750	   1.3750	  0.0000	 
  8.1750	  10.6250	  0.0000	 
  8.0625	   2.0625	  0.0000	 
  8.0625	   9.9375	  0.0000	 
  7.9500	   2.7500	  0.0000	 
  7.9500	   9.2500	  0.0000	 
  7.8375	   3.4375	  0.0000	 
  7.8375	   8.5625	  0.0000	 
  7.7250	   4.1250	  0.0000	 
  7.7250	   7.8750	  0.0000	 
  7.6125	   4.8125	  0.0000	 
  7.6125	   7.1875	  0.0000	 
  7.5000	   5.5000	  0.0000	 
  7.5000	   6.5000	  0.0000	 
 11.2000	   0.0000	  0.0000	 
 11.2000	  12.0000	  0.0000	 
 10.8625	   0.6875	  0.0000	 
 10.8625	  11.3125	  0.0000	 
 10.5250	   1.3750	  0.0000	 
 10.5250	  10.6250	  0.0000	 
 10.1875	   2.0625	  0.0000	 
 10.1875	   9.9375	  0.0000	 
  9.8500	   2.7500	  0.0000	 
  9.8500	   9.2500	  0.0000	 
  9.5125	   3.4375	  0.0000	 
  9.5125	   8.5625	  0.0000	 
  9.1750	   4.1250	  0.0000	 
  9.1750	   7.8750	  0.0000	 
  8.8375	   4.8125	  0.0000	 
  8.8375	   7.1875	  0.0000	 
  8.5000	   5.5000	  0.0000	 
  8.5000	   6.5000	  0.0000	 
 14.0000	   0.0000	  0.0000	 
 14.0000	  12.0000	  0.0000	 
 13.4375	   0.6875	  0.0000	 
 13.4375	  11.3125	  0.0000	 
 12.8750	   1.3750	  0.0000	 
 12.8750	  10.6250	  0.0000	 
 12.3125	   2.0625	  0.0000	 
 12.3125	   9.9375	  0.0000	 
 11.7500	   2.7500	  0.0000	 
 11.7500	   9.2500	  0.0000	 
 11.1875	   3.4375	  0.0000	 
 11.1875	   8.5625	  0.0000	 
 10.6250	   4.1250	  0.0000	 
 10.6250	   7.8750	  0.0000	 
 10.0625	   4.8125	  0.0000	 
 10.0625	   7.1875	  0.0000	 
  9.5000	   5.5000	  0.0000	 
  9.5000	   6.5000	  0.0000	 
  5.5000	   5.5000	  0.0000	 
  5.5000	   6.5000	  0.0000	 
  5.5000	   5.6567	  0.0000	 
  5.5000	   6.3433	  0.0000	 
  5.5000	   5.8133	  0.0000	 
  5.5000	   6.1867	  0.0000	 
  6.5000	   5.5000	  0.0000	 
  6.5000	   6.5000	  0.0000	 
  6.5000	   5.6567	  0.0000	 
  6.5000	   6.3433	  0.0000	 
  6.5000	   5.8133	  0.0000	 
  6.5000	   6.1867	  0.0000	 
  7.5000	   5.5000	  0.0000	 
  7.5000	   6.5000	  0.0000	 
  7.5000	   5.6567	  0.0000	 
  7.5000	   6.3433	  0.0000	 
  7.5000	   5.8133	  0.0000	 
  7.5000	   6.1867	  0.0000	 
  8.5000	   5.5000	  0.0000	 
  8.5000	   6.5000	  0.0000	 
  8.5000	   5.6567	  0.0000	 
  8.5000	   6.3433	  0.0000	 
  8.5000	   5.8133	  0.0000	 
  8.5000	   6.1867	  0.0000	 
  9.5000	   5.5000	  0.0000	 
  9.5000	   6.5000	  0.0000	 
  9.5000	   5.6567	  0.0000	 
  9.5000	   6.3433	  0.0000	 
  9.5000	   5.8133	  0.0000	 
  9.5000	   6.1867	  0.0000	 
  5.5000	   5.9700	  0.0000	 
  5.5000	   6.0000	  0.0000	 
  5.5000	   6.0300	  0.0000	 
  6.5000	   5.9700	  0.0000	 
  6.5000	   6.0000	  0.0000	 
  6.5000	   6.0300	  0.0000	 
  7.5000	   5.9700	  0.0000	 
  7.5000	   6.0000	  0.0000	 
  7.5000	   6.0300	  0.0000	 
  8.5000	   5.9700	  0.0000	 
  8.5000	   6.0000	  0.0000	 
  8.5000	   6.0300	  0.0000	 
  9.5000	   5.9700	  0.0000	 
  9.5000	   6.0000	  0.0000	 
  9.5000	   6.0300	  0.0000	 
 10.0625	   5.1371	  0.0000	 
 10.0625	   6.8629	  0.0000	 
 10.0625	   5.4617	  0.0000	 
 10.0625	   6.5383	  0.0000	 
 10.0625	   5.7862	  0.0000	 
 10.0625	   6.2138	  0.0000	 
 10.6250	   4.6175	  0.0000	 
 10.6250	   7.3825	  0.0000	 
 10.6250	   5.1100	  0.0000	 
 10.6250	   6.8900	  0.0000	 
 10.6250	   5.6025	  0.0000	 
 10.6250	   6.3975	  0.0000	 
 11.1875	   4.0979	  0.0000	 
 11.1875	   7.9021	  0.0000	 
 11.1875	   4.7583	  0.0000	 
 11.1875	   7.2417	  0.0000	 
 11.1875	   5.4188	  0.0000	 
 11.1875	   6.5812	  0.0000	 
 11.7500	   3.5783	  0.0000	 
 11.7500	   8.4217	  0.0000	 
 11.7500	   4.4067	  0.0000	 
 11.7500	   7.5933	  0.0000	 
 11.7500	   5.2350	  0.0000	 
 11.7500	   6.7650	  0.0000	 
 12.3125	   3.0587	  0.0000	 
 12.3125	   8.9413	  0.0000	 
 12.3125	   4.0550	  0.0000	 
 12.3125	   7.9450	  0.0000	 
 12.3125	   5.0512	  0.0000	 
 12.3125	   6.9488	  0.0000	 
 12.8750	   2.5392	  0.0000	 
 12.8750	   9.4608	  0.0000	 
 12.8750	   3.7033	  0.0000	 
 12.8750	   8.2967	  0.0000	 
 12.8750	   4.8675	  0.0000	 
 12.8750	   7.1325	  0.0000	 
 13.4375	   2.0196	  0.0000	 
 13.4375	   9.9804	  0.0000	 
 13.4375	   3.3517	  0.0000	 
 13.4375	   8.6483	  0.0000	 
 13.4375	   4.6837	  0.0000	 
 13.4375	   7.3163	  0.0000	 
 14.0000	   1.5000	  0.0000	 
 14.0000	  10.5000	  0.0000	 
 14.0000	   3.0000	  0.0000	 
 14.0000	   9.0000	  0.0000	 
 14.0000	   4.5000	  0.0000	 
 14.0000	   7.5000	  0.0000	 
 10.0625	   6.0000	  0.0000	 
 10.6250	   6.0000	  0.0000	 
 11.1875	   6.0000	  0.0000	 
 11.7500	   6.0000	  0.0000	 
 12.3125	   6.0000	  0.0000	 
 12.8750	   6.0000	  0.0000	 
 13.4375	   6.0000	  0.0000	 
 14.0000	   6.0000	  0.0000	 
 15.8333	   0.0000	  0.0000	 
 15.8333	   1.5000	  0.0000	 
 15.8333	   3.0000	  0.0000	 
 15.8333	   4.5000	  0.0000	 
 15.8333	   6.0000	  0.0000	 
 15.8333	   7.5000	  0.0000	 
 15.8333	   9.0000	  0.0000	 
 15.8333	  10.5000	  0.0000	 
 15.8333	  12.0000	  0.0000	 
 17.6667	   0.0000	  0.0000	 
 17.6667	   1.5000	  0.0000	 
 17.6667	   3.0000	  0.0000	 
 17.6667	   4.5000	  0.0000	 
 17.6667	   6.0000	  0.0000	 
 17.6667	   7.5000	  0.0000	 
 17.6667	   9.0000	  0.0000	 
 17.6667	  10.5000	  0.0000	 
 17.6667	  12.0000	  0.0000	 
 19.5000	   0.0000	  0.0000	 
 19.5000	   1.5000	  0.0000	 
 19.5000	   3.0000	  0.0000	 
 19.5000	   4.5000	  0.0000	 
 19.5000	   6.0000	  0.0000	 
 19.5000	   7.5000	  0.0000	 
 19.5000	   9.0000	  0.0000	 
 19.5000	  10.5000	  0.0000	 
 19.5000	  12.0000	  0.0000	 

CELLS 	     528 	    2112 
       3	       30	      37	       31	
       3	      275	     271	      262	
       3	       34	      41	       74	
       3	        6	      13	       68	
       3	      194	     192	      186	
       3	      182	     188	      180	
       3	        5	      13	        6	
       3	       23	      22	       29	
       3	       91	      93	       75	
       3	       20	      13	        5	
       3	       67	      65	       81	
       3	       70	      84	       68	
       3	        0	      63	       65	
       3	       26	      25	       33	
       3	       20	       5	       12	
       3	       55	      47	       54	
       3	       20	      70	       13	
       3	       73	      28	       71	
       3	      102	     104	      122	
       3	      127	     129	      109	
       3	      140	     160	      138	
       3	      241	     235	      243	
       3	      277	     261	      263	
[...]
POINT_DATA 	     299 
VECTORS U float 
 50.0000	   0.0000	   0.0000	
 50.0000	   0.0000	   0.0000	
 50.0000	  -0.0000	   0.0000	
 50.0000	   0.0000	   0.0000	
 50.0000	  -0.0000	   0.0000	
 50.0000	   0.0000	   0.0000	
 50.0000	   0.0000	   0.0000	
 48.6315	  16.6673	   0.0000	
 50.7231	  15.6931	   0.0000	
 47.7325	  25.1321	   0.0000	
 44.5065	  41.0003	   0.0000	
 54.6396	  48.1117	   0.0000	
 47.5932	  30.3407	   0.0000	
 51.9662	  43.3951	   0.0000	
 51.9040	  37.6924	   0.0000	
 45.3949	  39.2549	   0.0000	
 37.1952	  64.7525	   0.0000	
 43.2109	  73.1586	   0.0000	
 50.5989	  74.3015	   0.0000	
 59.1585	  79.7975	   0.0000	
 40.4122	  74.5147	   0.0000	
 50.7350	  63.5975	   0.0000	
 31.8466	  71.2707	   0.0000	
 32.0145	  78.7181	   0.0000	
 39.6023	  84.5693	   0.0000	
 51.8257	  90.2592	   0.0000	
 50.6826	  89.0413	   0.0000	
 46.4924	 110.7520	   0.0000	
 36.7328	  68.1370	   0.0000	
 28.6897	  67.6358	   0.0000	
 30.0405	  73.6774	   0.0000	
 39.6009	  77.5038	   0.0000	
 41.3040	  80.4876	   0.0000	
 55.2239	  89.1057	   0.0000	
 36.6761	  87.4319	   0.0000	
 32.8313	  78.2229	   0.0000	
 24.2459	  76.7094	   0.0000	
 28.2695	  76.3051	   0.0000	
 43.7676	  70.3579	   0.0000	
 33.1743	  72.8308	   0.0000	
 43.0765	  94.6582	   0.0000	
 52.2413	 105.0011	   0.0000	
 27.4089	  70.2645	   0.0000	
 24.0890	  72.9052	   0.0000	
 39.5557	  77.4965	   0.0000	
 12.0280	 101.3560	   0.0000	
 23.3374	 130.5023	   0.0000	
 13.6261	 146.1500	   0.0000	
 41.4906	 133.8542	   0.0000	
  9.7444	  52.2446	   0.0000	
 22.9760	  65.4492	   0.0000	
 -1.1829	  77.0384	   0.0000	
  3.8683	  80.5138	   0.0000	
 -3.3320	  80.6023	   0.0000	
  3.7103	  83.5308	   0.0000	
 28.8760	  80.6090	   0.0000	
  0.0000	  -0.0000	   0.0000	
 -0.0000	  -0.0000	   0.0000	
 -0.0000	  -0.0000	   0.0000	
 -0.0000	   0.0000	   0.0000	
  0.0000	   0.0000	   0.0000	
 -0.0000	   0.0000	   0.0000	
  0.0000	  -0.0000	   0.0000	
 50.0000	  50.0000	   0.0000	
 50.0000	   0.0000	   0.0000	
 69.2543	  52.6871	   0.0000	
 54.3704	  38.4774	   0.0000	
 84.7217	  58.2225	   0.0000	
 46.7358	  70.4365	   0.0000	
 60.7074	  71.8727	   0.0000	
 67.0291	  85.9195	   0.0000	
 59.3812	  70.0227	   0.0000	
 65.7270	  79.5254	   0.0000	
 38.1916	  77.0032	   0.0000	
 53.9919	  70.1685	   0.0000	
 29.2437	  64.8342	   0.0000	
 93.1059	  87.7988	   0.0000	
 19.1326	  51.0327	   0.0000	
 68.7748	  63.1070	   0.0000	
 -0.0000	  -0.0000	   0.0000	
 -0.0000	   0.0000	   0.0000	
 37.2897	  50.0000	   0.0000	
 80.0455	 143.2205	   0.0000	
 65.3588	  41.3509	   0.0000	
 14.1395	 111.5591	   0.0000	
 48.0043	  47.0997	   0.0000	
 29.4668	 100.6445	   0.0000	
 48.7442	  47.5016	   0.0000	
 38.5260	  92.3013	   0.0000	
 41.4108	  43.5777	   0.0000	
 35.6135	  81.0597	   0.0000	
 40.5288	  35.5060	   0.0000	
 53.5176	  61.7023	   0.0000	
 20.6189	  30.2861	   0.0000	
 80.3658	  42.1258	   0.0000	
 64.9623	   0.7134	   0.0000	
 13.5685	  -1.6238	   0.0000	
 -0.0000	   0.0000	   0.0000	
  0.0000	  -0.0000	   0.0000	
 73.7347	  50.0000	   0.0000	
-17.7599	  70.2306	   0.0000	
 47.6178	  55.8946	   0.0000	
 15.4012	  75.5025	   0.0000	
 47.7028	  56.8817	   0.0000	
  9.3600	  69.7883	   0.0000	
 52.8362	  58.0479	   0.0000	
 21.6760	  62.9406	   0.0000	
 57.7797	  58.1195	   0.0000	
  4.9681	  55.2054	   0.0000	
 55.3151	  58.9946	   0.0000	
 18.4499	  47.1477	   0.0000	
 67.5516	  53.5285	   0.0000	
 14.1894	  25.2160	   0.0000	
 85.7264	  60.5541	   0.0000	
  4.4661	  32.4998	   0.0000	
 28.1094	  50.7042	   0.0000	
  5.1965	  41.5758	   0.0000	
 50.9494	  50.0000	   0.0000	
  8.6768	  58.4639	   0.0000	
 48.5743	  49.9565	   0.0000	
  7.9487	  57.7703	   0.0000	
 46.5877	  49.8428	   0.0000	
  5.7907	  57.6852	   0.0000	
 45.3884	  50.3408	   0.0000	
  5.4886	  59.4915	   0.0000	
 50.5126	  54.2825	   0.0000	
 12.2129	  62.3435	   0.0000	
 41.8839	  56.8469	   0.0000	
 12.9554	  65.0152	   0.0000	
 52.5733	  64.3464	   0.0000	
 -6.4777	  67.6629	   0.0000	
 62.8265	  76.5203	   0.0000	
 22.6963	  64.7825	   0.0000	
 43.1032	  87.2430	   0.0000	
 16.6774	  71.8019	   0.0000	
 47.7052	  50.0000	   0.0000	
  0.1191	  46.9053	   0.0000	
 45.9995	  50.8443	   0.0000	
  6.3964	  46.4205	   0.0000	
 45.8553	  52.0908	   0.0000	
  5.7129	  48.0538	   0.0000	
 43.1238	  51.9438	   0.0000	
  9.1132	  50.1214	   0.0000	
 41.7848	  53.1050	   0.0000	
 14.0632	  51.7242	   0.0000	
 39.7104	  54.5511	   0.0000	
 16.4240	  51.7683	   0.0000	
 41.6255	  55.6522	   0.0000	
  3.1186	  57.7093	   0.0000	
 49.3986	  63.5022	   0.0000	
 20.8834	  66.9694	   0.0000	
 31.6997	  71.8632	   0.0000	
 29.8533	  63.9183	   0.0000	
 63.2794	  50.0000	   0.0000	
  0.9151	  30.8612	   0.0000	
 55.7989	  46.2315	   0.0000	
  4.3236	  34.3895	   0.0000	
 45.9665	  41.6141	   0.0000	
  8.2226	  37.7139	   0.0000	
 46.0149	  44.3931	   0.0000	
  8.3313	  41.0579	   0.0000	
 43.1544	  45.9829	   0.0000	
 13.8306	  43.1141	   0.0000	
 40.8667	  47.2827	   0.0000	
 16.9043	  45.7526	   0.0000	
 40.4529	  49.4506	   0.0000	
 14.4380	  50.6519	   0.0000	
 40.5125	  52.0934	   0.0000	
 32.9795	  58.1644	   0.0000	
 24.4400	  61.1584	   0.0000	
 27.5237	  68.7496	   0.0000	
  0.0000	   0.0000	   0.0000	
  0.0000	   0.0000	   0.0000	
  0.0000	  -0.0000	   0.0000	
  0.0000	   0.0000	   0.0000	
  0.0000	  -0.0000	   0.0000	
 -0.0000	  -0.0000	   0.0000	
  0.0000	   0.0000	   0.0000	
  0.0000	   0.0000	   0.0000	
 -0.1253	  46.8434	   0.0000	
 -7.7196	  42.8367	   0.0000	
  8.8800	  42.8477	   0.0000	
 11.6529	  41.8706	   0.0000	
  0.0000	   0.0000	   0.0000	
  0.0000	   0.0000	   0.0000	
 38.2390	  87.4478	   0.0000	
 11.4707	  76.7472	   0.0000	
  5.3543	  86.0156	   0.0000	
 15.8089	  80.2005	   0.0000	
  0.0000	   0.0000	   0.0000	
  0.0000	   0.0000	   0.0000	
 24.3917	  74.6559	   0.0000	
 33.1237	  66.8089	   0.0000	
 29.8016	  73.5699	   0.0000	
 38.4067	  66.6645	   0.0000	
  0.0000	   0.0000	   0.0000	
  0.0000	   0.0000	   0.0000	
 21.6561	  62.6608	   0.0000	
 30.4167	  68.0721	   0.0000	
 33.1028	  61.4760	   0.0000	
 33.0070	  65.5158	   0.0000	
 -0.0000	   0.0000	   0.0000	
 -0.0000	  -0.0000	   0.0000	
  0.0000	  -0.0000	   0.0000	
 -3.3864	  44.1006	   0.0000	
 -2.2870	  43.6313	   0.0000	
 -5.7198	  44.4514	   0.0000	
  5.0175	  83.6593	   0.0000	
 13.5873	  82.6172	   0.0000	
  3.2002	  82.8321	   0.0000	
 23.6696	  71.1673	   0.0000	
 36.6262	  70.2204	   0.0000	
 24.4516	  70.2815	   0.0000	
 24.3203	  64.2350	   0.0000	
 33.4122	  62.6956	   0.0000	
 30.4855	  64.9634	   0.0000	
 33.1107	  53.5299	   0.0000	
 27.7208	  55.0966	   0.0000	
 23.0843	  52.6384	   0.0000	
 23.2469	  52.4648	   0.0000	
 28.4718	  51.5972	   0.0000	
 27.4584	  50.2783	   0.0000	
 40.4667	  51.5108	   0.0000	
 28.9642	  53.5618	   0.0000	
 32.9793	  53.5307	   0.0000	
 23.6638	  49.3227	   0.0000	
 26.1673	  50.6840	   0.0000	
 24.4991	  51.2369	   0.0000	
 38.0108	  50.1271	   0.0000	
 18.3696	  50.0257	   0.0000	
 36.5156	  52.5010	   0.0000	
 25.8321	  46.1449	   0.0000	
 30.3833	  53.1887	   0.0000	
 25.1527	  48.5058	   0.0000	
 38.7793	  47.1959	   0.0000	
 19.5554	  44.6279	   0.0000	
 36.6825	  47.4942	   0.0000	
 19.8665	  46.9024	   0.0000	
 31.8812	  48.5679	   0.0000	
 27.1111	  44.8999	   0.0000	
 40.8919	  44.7775	   0.0000	
 17.6422	  42.7807	   0.0000	
 37.7101	  44.4003	   0.0000	
 21.0070	  42.2159	   0.0000	
 32.4384	  45.0319	   0.0000	
 24.8195	  45.7992	   0.0000	
 43.1064	  44.6014	   0.0000	
 13.4471	  39.9649	   0.0000	
 39.0953	  43.6561	   0.0000	
 19.9249	  38.5387	   0.0000	
 33.1210	  44.2562	   0.0000	
 25.5432	  40.8450	   0.0000	
 43.4340	  41.9591	   0.0000	
 11.0294	  35.9900	   0.0000	
 40.8669	  41.6381	   0.0000	
 18.1634	  36.8810	   0.0000	
 33.7739	  41.8096	   0.0000	
 26.0537	  38.0132	   0.0000	
 48.3473	  47.3088	   0.0000	
  9.3633	  30.8700	   0.0000	
 42.5724	  40.0072	   0.0000	
 16.5541	  31.9542	   0.0000	
 35.4509	  38.4406	   0.0000	
 25.1692	  32.6202	   0.0000	
 27.2584	  50.9786	   0.0000	
 29.7707	  50.7138	   0.0000	
 29.3111	  50.3497	   0.0000	
 30.7256	  46.8018	   0.0000	
 32.2119	  45.3105	   0.0000	
 31.7061	  43.1942	   0.0000	
 32.5198	  40.5316	   0.0000	
 33.3143	  32.5249	   0.0000	
 66.6731	  50.0000	   0.0000	
 58.0709	  41.5675	   0.0000	
 46.1273	  36.7934	   0.0000	
 44.2713	  27.4377	   0.0000	
 33.7842	  25.6881	   0.0000	
 25.8934	  24.6226	   0.0000	
 17.4219	  23.9027	   0.0000	
  9.2463	  24.1176	   0.0000	
  0.3831	  24.3161	   0.0000	
 77.5242	  50.0000	   0.0000	
 67.3215	  40.8854	   0.0000	
 62.1018	  24.1177	   0.0000	
 48.9536	  16.7816	   0.0000	
 36.5210	  12.7120	   0.0000	
 27.5365	  10.1153	   0.0000	
 17.8710	   8.9087	   0.0000	
  9.3502	   8.2654	   0.0000	
  0.2640	   8.2694	   0.0000	
 89.8693	  50.0000	   0.0000	
 90.6606	  30.0080	   0.0000	
 74.0180	  18.8091	   0.0000	
 55.8327	  12.3692	   0.0000	
 41.0715	   7.8795	   0.0000	
 29.7031	   5.7812	   0.0000	
 19.0994	   4.5862	   0.0000	
  9.5252	   4.2961	   0.0000	
  2.4008	   2.5345	   0.0000	
