# vtk DataFile Version 3.0 
Results 
ASCII 
DATASET UNSTRUCTURED_GRID 
POINTS 	    1451 float 
  0.0000	   0.6000	  0.0000	 
  0.0000	   1.2000	  0.0000	 
  0.0000	   1.8000	  0.0000	 
  0.0000	   2.4000	  0.0000	 
  0.0000	   3.0000	  0.0000	 
  0.0000	   3.6000	  0.0000	 
  0.0000	   4.2000	  0.0000	 
  0.0000	   4.8000	  0.0000	 
  0.0000	   5.4000	  0.0000	 
  0.0000	   6.0000	  0.0000	 
  0.0000	   6.6000	  0.0000	 
  0.0000	   7.2000	  0.0000	 
  0.0000	   7.8000	  0.0000	 
  0.0000	   8.4000	  0.0000	 
  0.0000	   9.0000	  0.0000	 
  0.0000	   9.6000	  0.0000	 
  0.0000	  10.2000	  0.0000	 
  0.0000	  10.8000	  0.0000	 
  0.0000	  11.4000	  0.0000	 
  0.2250	   0.8475	  0.0000	 
  0.2250	   1.4200	  0.0000	 
  0.2250	   1.9925	  0.0000	 
  0.2250	   2.5650	  0.0000	 
  0.2250	   3.1375	  0.0000	 
  0.2250	   3.7100	  0.0000	 
  0.2250	   4.2825	  0.0000	 
  0.2250	   4.8550	  0.0000	 
  0.2250	   5.4275	  0.0000	 
  0.2250	   6.0000	  0.0000	 
  0.2250	   6.5725	  0.0000	 
  0.2250	   7.1450	  0.0000	 
  0.2250	   7.7175	  0.0000	 
  0.2250	   8.2900	  0.0000	 
  0.2250	   8.8625	  0.0000	 
  0.2250	   9.4350	  0.0000	 
  0.2250	  10.0075	  0.0000	 
  0.2250	  10.5800	  0.0000	 
  0.2250	  11.1525	  0.0000	 
  0.4500	   1.0950	  0.0000	 
  0.4500	   1.6400	  0.0000	 
  0.4500	   2.1850	  0.0000	 
  0.4500	   2.7300	  0.0000	 
  0.4500	   3.2750	  0.0000	 
  0.4500	   3.8200	  0.0000	 
  0.4500	   4.3650	  0.0000	 
  0.4500	   4.9100	  0.0000	 
  0.4500	   5.4550	  0.0000	 
  0.4500	   6.0000	  0.0000	 
  0.4500	   6.5450	  0.0000	 
  0.4500	   7.0900	  0.0000	 
  0.4500	   7.6350	  0.0000	 
  0.4500	   8.1800	  0.0000	 
  0.4500	   8.7250	  0.0000	 
  0.4500	   9.2700	  0.0000	 
  0.4500	   9.8150	  0.0000	 
  0.4500	  10.3600	  0.0000	 
  0.4500	  10.9050	  0.0000	 
  0.6750	   1.3425	  0.0000	 
  0.6750	   1.8600	  0.0000	 
  0.6750	   2.3775	  0.0000	 
  0.6750	   2.8950	  0.0000	 
  0.6750	   3.4125	  0.0000	 
  0.6750	   3.9300	  0.0000	 
  0.6750	   4.4475	  0.0000	 
  0.6750	   4.9650	  0.0000	 
  0.6750	   5.4825	  0.0000	 
  0.6750	   6.0000	  0.0000	 
  0.6750	   6.5175	  0.0000	 
  0.6750	   7.0350	  0.0000	 
  0.6750	   7.5525	  0.0000	 
  0.6750	   8.0700	  0.0000	 
  0.6750	   8.5875	  0.0000	 
  0.6750	   9.1050	  0.0000	 
  0.6750	   9.6225	  0.0000	 
  0.6750	  10.1400	  0.0000	 
  0.6750	  10.6575	  0.0000	 
  0.9000	   1.5900	  0.0000	 
  0.9000	   2.0800	  0.0000	 
  0.9000	   2.5700	  0.0000	 
  0.9000	   3.0600	  0.0000	 
  0.9000	   3.5500	  0.0000	 
  0.9000	   4.0400	  0.0000	 
  0.9000	   4.5300	  0.0000	 
  0.9000	   5.0200	  0.0000	 
  0.9000	   5.5100	  0.0000	 
  0.9000	   6.0000	  0.0000	 
  0.9000	   6.4900	  0.0000	 
  0.9000	   6.9800	  0.0000	 
  0.9000	   7.4700	  0.0000	 
  0.9000	   7.9600	  0.0000	 
  0.9000	   8.4500	  0.0000	 
  0.9000	   8.9400	  0.0000	 
  0.9000	   9.4300	  0.0000	 
  0.9000	   9.9200	  0.0000	 
  0.9000	  10.4100	  0.0000	 
  1.1250	   1.8375	  0.0000	 
  1.1250	   2.3000	  0.0000	 
  1.1250	   2.7625	  0.0000	 
  1.1250	   3.2250	  0.0000	 
  1.1250	   3.6875	  0.0000	 
  1.1250	   4.1500	  0.0000	 
  1.1250	   4.6125	  0.0000	 
  1.1250	   5.0750	  0.0000	 
  1.1250	   5.5375	  0.0000	 
  1.1250	   6.0000	  0.0000	 
  1.1250	   6.4625	  0.0000	 
  1.1250	   6.9250	  0.0000	 
  1.1250	   7.3875	  0.0000	 
  1.1250	   7.8500	  0.0000	 
  1.1250	   8.3125	  0.0000	 
  1.1250	   8.7750	  0.0000	 
  1.1250	   9.2375	  0.0000	 
  1.1250	   9.7000	  0.0000	 
  1.1250	  10.1625	  0.0000	 
  1.3500	   2.0850	  0.0000	 
  1.3500	   2.5200	  0.0000	 
  1.3500	   2.9550	  0.0000	 
  1.3500	   3.3900	  0.0000	 
  1.3500	   3.8250	  0.0000	 
  1.3500	   4.2600	  0.0000	 
  1.3500	   4.6950	  0.0000	 
  1.3500	   5.1300	  0.0000	 
  1.3500	   5.5650	  0.0000	 
  1.3500	   6.0000	  0.0000	 
  1.3500	   6.4350	  0.0000	 
  1.3500	   6.8700	  0.0000	 
  1.3500	   7.3050	  0.0000	 
  1.3500	   7.7400	  0.0000	 
  1.3500	   8.1750	  0.0000	 
  1.3500	   8.6100	  0.0000	 
  1.3500	   9.0450	  0.0000	 
  1.3500	   9.4800	  0.0000	 
  1.3500	   9.9150	  0.0000	 
  1.5750	   2.3325	  0.0000	 
  1.5750	   2.7400	  0.0000	 
  1.5750	   3.1475	  0.0000	 
  1.5750	   3.5550	  0.0000	 
  1.5750	   3.9625	  0.0000	 
  1.5750	   4.3700	  0.0000	 
  1.5750	   4.7775	  0.0000	 
  1.5750	   5.1850	  0.0000	 
  1.5750	   5.5925	  0.0000	 
  1.5750	   6.0000	  0.0000	 
  1.5750	   6.4075	  0.0000	 
  1.5750	   6.8150	  0.0000	 
  1.5750	   7.2225	  0.0000	 
  1.5750	   7.6300	  0.0000	 
  1.5750	   8.0375	  0.0000	 
  1.5750	   8.4450	  0.0000	 
  1.5750	   8.8525	  0.0000	 
  1.5750	   9.2600	  0.0000	 
  1.5750	   9.6675	  0.0000	 
  1.8000	   2.5800	  0.0000	 
  1.8000	   2.9600	  0.0000	 
  1.8000	   3.3400	  0.0000	 
  1.8000	   3.7200	  0.0000	 
  1.8000	   4.1000	  0.0000	 
  1.8000	   4.4800	  0.0000	 
  1.8000	   4.8600	  0.0000	 
  1.8000	   5.2400	  0.0000	 
  1.8000	   5.6200	  0.0000	 
  1.8000	   6.0000	  0.0000	 
  1.8000	   6.3800	  0.0000	 
  1.8000	   6.7600	  0.0000	 
  1.8000	   7.1400	  0.0000	 
  1.8000	   7.5200	  0.0000	 
  1.8000	   7.9000	  0.0000	 
  1.8000	   8.2800	  0.0000	 
  1.8000	   8.6600	  0.0000	 
  1.8000	   9.0400	  0.0000	 
  1.8000	   9.4200	  0.0000	 
  2.0250	   2.8275	  0.0000	 
  2.0250	   3.1800	  0.0000	 
  2.0250	   3.5325	  0.0000	 
  2.0250	   3.8850	  0.0000	 
  2.0250	   4.2375	  0.0000	 
  2.0250	   4.5900	  0.0000	 
  2.0250	   4.9425	  0.0000	 
  2.0250	   5.2950	  0.0000	 
  2.0250	   5.6475	  0.0000	 
  2.0250	   6.0000	  0.0000	 
  2.0250	   6.3525	  0.0000	 
  2.0250	   6.7050	  0.0000	 
  2.0250	   7.0575	  0.0000	 
  2.0250	   7.4100	  0.0000	 
  2.0250	   7.7625	  0.0000	 
  2.0250	   8.1150	  0.0000	 
  2.0250	   8.4675	  0.0000	 
  2.0250	   8.8200	  0.0000	 
  2.0250	   9.1725	  0.0000	 
  2.2500	   3.0750	  0.0000	 
  2.2500	   3.4000	  0.0000	 
  2.2500	   3.7250	  0.0000	 
  2.2500	   4.0500	  0.0000	 
  2.2500	   4.3750	  0.0000	 
  2.2500	   4.7000	  0.0000	 
  2.2500	   5.0250	  0.0000	 
  2.2500	   5.3500	  0.0000	 
  2.2500	   5.6750	  0.0000	 
  2.2500	   6.0000	  0.0000	 
  2.2500	   6.3250	  0.0000	 
  2.2500	   6.6500	  0.0000	 
  2.2500	   6.9750	  0.0000	 
  2.2500	   7.3000	  0.0000	 
  2.2500	   7.6250	  0.0000	 
  2.2500	   7.9500	  0.0000	 
  2.2500	   8.2750	  0.0000	 
  2.2500	   8.6000	  0.0000	 
  2.2500	   8.9250	  0.0000	 
  2.4750	   3.3225	  0.0000	 
  2.4750	   3.6200	  0.0000	 
  2.4750	   3.9175	  0.0000	 
  2.4750	   4.2150	  0.0000	 
  2.4750	   4.5125	  0.0000	 
  2.4750	   4.8100	  0.0000	 
  2.4750	   5.1075	  0.0000	 
  2.4750	   5.4050	  0.0000	 
  2.4750	   5.7025	  0.0000	 
  2.4750	   6.0000	  0.0000	 
  2.4750	   6.2975	  0.0000	 
  2.4750	   6.5950	  0.0000	 
  2.4750	   6.8925	  0.0000	 
  2.4750	   7.1900	  0.0000	 
  2.4750	   7.4875	  0.0000	 
  2.4750	   7.7850	  0.0000	 
  2.4750	   8.0825	  0.0000	 
  2.4750	   8.3800	  0.0000	 
  2.4750	   8.6775	  0.0000	 
  2.7000	   3.5700	  0.0000	 
  2.7000	   3.8400	  0.0000	 
  2.7000	   4.1100	  0.0000	 
  2.7000	   4.3800	  0.0000	 
  2.7000	   4.6500	  0.0000	 
  2.7000	   4.9200	  0.0000	 
  2.7000	   5.1900	  0.0000	 
  2.7000	   5.4600	  0.0000	 
  2.7000	   5.7300	  0.0000	 
  2.7000	   6.0000	  0.0000	 
  2.7000	   6.2700	  0.0000	 
  2.7000	   6.5400	  0.0000	 
  2.7000	   6.8100	  0.0000	 
  2.7000	   7.0800	  0.0000	 
  2.7000	   7.3500	  0.0000	 
  2.7000	   7.6200	  0.0000	 
  2.7000	   7.8900	  0.0000	 
  2.7000	   8.1600	  0.0000	 
  2.7000	   8.4300	  0.0000	 
  2.9250	   3.8175	  0.0000	 
  2.9250	   4.0600	  0.0000	 
  2.9250	   4.3025	  0.0000	 
  2.9250	   4.5450	  0.0000	 
  2.9250	   4.7875	  0.0000	 
  2.9250	   5.0300	  0.0000	 
  2.9250	   5.2725	  0.0000	 
  2.9250	   5.5150	  0.0000	 
  2.9250	   5.7575	  0.0000	 
  2.9250	   6.0000	  0.0000	 
  2.9250	   6.2425	  0.0000	 
  2.9250	   6.4850	  0.0000	 
  2.9250	   6.7275	  0.0000	 
  2.9250	   6.9700	  0.0000	 
  2.9250	   7.2125	  0.0000	 
  2.9250	   7.4550	  0.0000	 
  2.9250	   7.6975	  0.0000	 
  2.9250	   7.9400	  0.0000	 
  2.9250	   8.1825	  0.0000	 
  3.1500	   4.0650	  0.0000	 
  3.1500	   4.2800	  0.0000	 
  3.1500	   4.4950	  0.0000	 
  3.1500	   4.7100	  0.0000	 
  3.1500	   4.9250	  0.0000	 
  3.1500	   5.1400	  0.0000	 
  3.1500	   5.3550	  0.0000	 
  3.1500	   5.5700	  0.0000	 
  3.1500	   5.7850	  0.0000	 
  3.1500	   6.0000	  0.0000	 
  3.1500	   6.2150	  0.0000	 
  3.1500	   6.4300	  0.0000	 
  3.1500	   6.6450	  0.0000	 
  3.1500	   6.8600	  0.0000	 
  3.1500	   7.0750	  0.0000	 
  3.1500	   7.2900	  0.0000	 
  3.1500	   7.5050	  0.0000	 
  3.1500	   7.7200	  0.0000	 
  3.1500	   7.9350	  0.0000	 
  3.3750	   4.3125	  0.0000	 
  3.3750	   4.5000	  0.0000	 
  3.3750	   4.6875	  0.0000	 
  3.3750	   4.8750	  0.0000	 
  3.3750	   5.0625	  0.0000	 
  3.3750	   5.2500	  0.0000	 
  3.3750	   5.4375	  0.0000	 
  3.3750	   5.6250	  0.0000	 
  3.3750	   5.8125	  0.0000	 
  3.3750	   6.0000	  0.0000	 
  3.3750	   6.1875	  0.0000	 
  3.3750	   6.3750	  0.0000	 
  3.3750	   6.5625	  0.0000	 
  3.3750	   6.7500	  0.0000	 
  3.3750	   6.9375	  0.0000	 
  3.3750	   7.1250	  0.0000	 
  3.3750	   7.3125	  0.0000	 
  3.3750	   7.5000	  0.0000	 
  3.3750	   7.6875	  0.0000	 
  3.6000	   4.5600	  0.0000	 
  3.6000	   4.7200	  0.0000	 
  3.6000	   4.8800	  0.0000	 
  3.6000	   5.0400	  0.0000	 
  3.6000	   5.2000	  0.0000	 
  3.6000	   5.3600	  0.0000	 
  3.6000	   5.5200	  0.0000	 
  3.6000	   5.6800	  0.0000	 
  3.6000	   5.8400	  0.0000	 
  3.6000	   6.0000	  0.0000	 
  3.6000	   6.1600	  0.0000	 
  3.6000	   6.3200	  0.0000	 
  3.6000	   6.4800	  0.0000	 
  3.6000	   6.6400	  0.0000	 
  3.6000	   6.8000	  0.0000	 
  3.6000	   6.9600	  0.0000	 
  3.6000	   7.1200	  0.0000	 
  3.6000	   7.2800	  0.0000	 
  3.6000	   7.4400	  0.0000	 
  3.8250	   4.8075	  0.0000	 
  3.8250	   4.9400	  0.0000	 
  3.8250	   5.0725	  0.0000	 
  3.8250	   5.2050	  0.0000	 
  3.8250	   5.3375	  0.0000	 
  3.8250	   5.4700	  0.0000	 
  3.8250	   5.6025	  0.0000	 
[...]
POINT_DATA 	    1451 
VECTORS U float 
 50.0000	   0.0000	   0.0000	
 50.0000	   0.0000	   0.0000	
 50.0000	   0.0000	   0.0000	
 50.0000	   0.0000	   0.0000	
 50.0000	  -0.0000	   0.0000	
 50.0000	  -0.0000	   0.0000	
 50.0000	   0.0000	   0.0000	
 50.0000	  -0.0000	   0.0000	
 50.0000	  -0.0000	   0.0000	
 50.0000	   0.0000	   0.0000	
 50.0000	  -0.0000	   0.0000	
 50.0000	  -0.0000	   0.0000	
 50.0000	   0.0000	   0.0000	
 50.0000	   0.0000	   0.0000	
 50.0000	  -0.0000	   0.0000	
 50.0000	  -0.0000	   0.0000	
 50.0000	   0.0000	   0.0000	
 50.0000	   0.0000	   0.0000	
 50.0000	  -0.0000	   0.0000	
 49.1654	   5.9381	   0.0000	
 50.2685	   6.4658	   0.0000	
 50.2047	  10.3403	   0.0000	
 49.8505	  18.0427	   0.0000	
 49.9865	  10.2296	   0.0000	
 49.7512	  18.7474	   0.0000	
 49.3594	  22.5401	   0.0000	
 49.2233	  28.1178	   0.0000	
 49.7478	  31.5208	   0.0000	
 49.9926	  33.0272	   0.0000	
 49.7726	  32.8598	   0.0000	
 50.7363	  31.9417	   0.0000	
 50.3759	  27.3809	   0.0000	
 50.2840	  24.7390	   0.0000	
 50.2892	  23.3143	   0.0000	
 49.9706	  15.5357	   0.0000	
 50.0449	  18.3204	   0.0000	
 49.2612	  15.6939	   0.0000	
 50.4612	  15.5105	   0.0000	
 49.9742	  11.4198	   0.0000	
 46.4640	  17.8598	   0.0000	
 43.9988	  31.6129	   0.0000	
 56.2446	  23.3137	   0.0000	
 43.6988	  32.7582	   0.0000	
 47.2567	  37.5284	   0.0000	
 45.6148	  48.1653	   0.0000	
 46.8860	  56.7096	   0.0000	
 48.4855	  60.8913	   0.0000	
 49.3127	  62.9760	   0.0000	
 50.2397	  63.5757	   0.0000	
 51.1720	  63.1405	   0.0000	
 54.1254	  57.9986	   0.0000	
 51.9477	  46.6337	   0.0000	
 50.4940	  45.2980	   0.0000	
 55.6656	  42.5569	   0.0000	
 47.8064	  32.1631	   0.0000	
 52.6138	  33.5874	   0.0000	
 50.6234	  32.8056	   0.0000	
 45.0279	  19.3642	   0.0000	
 39.3350	  41.7730	   0.0000	
 52.9416	  35.5128	   0.0000	
 47.6802	  46.0298	   0.0000	
 43.6975	  48.0986	   0.0000	
 41.8785	  59.1644	   0.0000	
 42.2676	  67.6742	   0.0000	
 45.3287	  70.9849	   0.0000	
 47.6109	  73.8113	   0.0000	
 47.6601	  76.8222	   0.0000	
 50.0827	  81.8347	   0.0000	
 51.1282	  81.2631	   0.0000	
 55.5135	  83.5857	   0.0000	
 58.6993	  77.7604	   0.0000	
 51.8181	  64.4868	   0.0000	
 53.8814	  62.2133	   0.0000	
 56.3247	  61.0487	   0.0000	
 50.0508	  50.2839	   0.0000	
 48.5665	  49.0870	   0.0000	
 25.8842	  44.6750	   0.0000	
 47.3562	  44.8969	   0.0000	
 48.7528	  54.2014	   0.0000	
 43.7757	  62.0317	   0.0000	
 38.9015	  60.7818	   0.0000	
 39.1333	  65.2654	   0.0000	
 41.2560	  66.8346	   0.0000	
 44.4993	  69.7859	   0.0000	
 46.6002	  71.5272	   0.0000	
 47.3398	  72.5205	   0.0000	
 47.4598	  72.5604	   0.0000	
 50.7437	  79.0873	   0.0000	
 53.5283	  78.7844	   0.0000	
 59.6562	  82.3751	   0.0000	
 59.5162	  80.6413	   0.0000	
 53.4466	  77.7301	   0.0000	
 57.3241	  79.4798	   0.0000	
 54.6257	  77.5171	   0.0000	
 54.8518	  65.1131	   0.0000	
 38.5903	  50.3333	   0.0000	
 44.3272	  63.1091	   0.0000	
 41.0765	  70.8207	   0.0000	
 45.9627	  70.8577	   0.0000	
 37.5886	  67.2946	   0.0000	
 39.3030	  66.2823	   0.0000	
 40.5949	  68.0556	   0.0000	
 44.1133	  68.9576	   0.0000	
 45.8897	  70.6810	   0.0000	
 46.4777	  72.3548	   0.0000	
 47.9621	  74.0686	   0.0000	
 47.1729	  72.5494	   0.0000	
 53.0035	  79.8566	   0.0000	
 56.9734	  78.7672	   0.0000	
 59.7836	  83.7543	   0.0000	
 52.4355	  89.3086	   0.0000	
 53.9274	  91.2578	   0.0000	
 57.1995	  95.2162	   0.0000	
 61.5534	  97.3633	   0.0000	
 35.6192	  68.6254	   0.0000	
 41.9118	  78.5336	   0.0000	
 43.4317	  73.9543	   0.0000	
 45.3654	  76.3633	   0.0000	
 38.7045	  69.8018	   0.0000	
 38.9586	  70.6579	   0.0000	
 41.0323	  70.1127	   0.0000	
 43.4038	  72.0598	   0.0000	
 45.3178	  73.8146	   0.0000	
 45.0667	  76.3738	   0.0000	
 46.8360	  79.4096	   0.0000	
 48.0786	  81.2476	   0.0000	
 48.0510	  79.6940	   0.0000	
 56.4616	  86.8448	   0.0000	
 56.7196	  86.6012	   0.0000	
 51.3774	  96.0904	   0.0000	
 51.3496	  98.9264	   0.0000	
 53.1618	 104.6847	   0.0000	
 51.7232	 114.6609	   0.0000	
 35.0543	  65.2752	   0.0000	
 45.4358	  67.9917	   0.0000	
 42.9679	  66.8939	   0.0000	
 45.6663	  68.6717	   0.0000	
 38.1714	  66.4713	   0.0000	
 39.9508	  65.4387	   0.0000	
 40.1430	  67.3821	   0.0000	
 42.6389	  69.9443	   0.0000	
 43.7357	  72.9622	   0.0000	
 44.4408	  74.3470	   0.0000	
 45.3819	  75.1257	   0.0000	
 46.6822	  78.0010	   0.0000	
 49.1137	  79.8447	   0.0000	
 50.6761	  76.6808	   0.0000	
 56.9982	  84.2067	   0.0000	
 49.5240	  86.2263	   0.0000	
 49.6164	  89.0897	   0.0000	
 49.2532	  92.1217	   0.0000	
 46.3105	 102.4942	   0.0000	
 39.9996	  59.8707	   0.0000	
 44.9184	  65.1141	   0.0000	
 42.6349	  64.0838	   0.0000	
 43.3511	  69.9291	   0.0000	
 39.2715	  65.6483	   0.0000	
 38.6930	  67.5340	   0.0000	
 39.1900	  69.6311	   0.0000	
 41.0787	  72.5046	   0.0000	
 42.9631	  74.3875	   0.0000	
 43.2254	  76.4130	   0.0000	
 45.0364	  78.4310	   0.0000	
 44.7848	  78.5284	   0.0000	
 47.5000	  81.7462	   0.0000	
 52.5753	  82.0302	   0.0000	
 50.8811	  78.7095	   0.0000	
 51.7539	  89.0955	   0.0000	
 48.7783	  85.9388	   0.0000	
 48.1863	  87.0497	   0.0000	
 41.9277	  95.0286	   0.0000	
 40.3097	  58.6529	   0.0000	
 43.8200	  63.7673	   0.0000	
 39.2643	  65.6645	   0.0000	
 44.1107	  67.8527	   0.0000	
 37.7514	  66.6981	   0.0000	
 37.7281	  68.3853	   0.0000	
 37.7830	  70.5789	   0.0000	
 40.2217	  72.6895	   0.0000	
 41.5816	  75.1834	   0.0000	
 41.7029	  77.6815	   0.0000	
 43.8963	  80.0311	   0.0000	
 44.8386	  81.5532	   0.0000	
 44.9724	  81.4654	   0.0000	
 51.0205	  83.2035	   0.0000	
 54.0358	  83.5752	   0.0000	
 45.0193	  83.5560	   0.0000	
 51.9276	  90.2067	   0.0000	
 49.0630	  87.0731	   0.0000	
 40.9515	  92.2031	   0.0000	
 39.3237	  59.1600	   0.0000	
 39.9038	  65.6055	   0.0000	
 40.5970	  64.0432	   0.0000	
 41.6091	  68.5650	   0.0000	
 36.4597	  67.7785	   0.0000	
 36.3926	  69.5476	   0.0000	
 36.8367	  71.3273	   0.0000	
 38.7272	  74.0626	   0.0000	
 40.0111	  76.7194	   0.0000	
 40.5516	  78.3090	   0.0000	
 42.5425	  79.4270	   0.0000	
 43.5325	  80.9579	   0.0000	
 45.1760	  82.4034	   0.0000	
 48.3673	  80.1684	   0.0000	
 52.4488	  82.1659	   0.0000	
 49.8891	  85.4829	   0.0000	
 42.9484	  83.8078	   0.0000	
 52.9491	  89.4188	   0.0000	
 44.2951	  90.7195	   0.0000	
 35.6404	  61.5997	   0.0000	
 41.9711	  63.6422	   0.0000	
 37.6048	  63.6993	   0.0000	
 39.5487	  68.2207	   0.0000	
 34.9508	  67.7627	   0.0000	
 35.2188	  69.7189	   0.0000	
 35.5276	  71.4727	   0.0000	
 37.0707	  73.7751	   0.0000	
 38.7221	  75.8823	   0.0000	
 38.7694	  78.3730	   0.0000	
 42.1661	  80.7745	   0.0000	
 42.2489	  80.8452	   0.0000	
 44.0752	  82.3826	   0.0000	
 49.1855	  81.5401	   0.0000	
 49.1384	  80.3310	   0.0000	
 48.9789	  85.6577	   0.0000	
 47.6127	  87.8945	   0.0000	
 42.5278	  86.6603	   0.0000	
 49.8328	  93.4065	   0.0000	
 39.8556	  60.8466	   0.0000	
 38.3816	  64.2842	   0.0000	
 35.3248	  65.4912	   0.0000	
 36.8212	  69.9404	   0.0000	
 33.5176	  70.1649	   0.0000	
 34.0428	  71.8541	   0.0000	
 34.1904	  73.6649	   0.0000	
 35.7686	  75.7899	   0.0000	
 36.6579	  78.6326	   0.0000	
 35.9772	  82.1613	   0.0000	
 40.0304	  85.3623	   0.0000	
 42.2974	  87.0736	   0.0000	
 42.6794	  86.6058	   0.0000	
 47.9042	  85.7117	   0.0000	
 50.0154	  86.3977	   0.0000	
 44.5981	  88.8968	   0.0000	
 45.7441	  94.2525	   0.0000	
 49.3292	  92.3239	   0.0000	
 38.1946	  91.8156	   0.0000	
 35.9519	  57.5716	   0.0000	
 33.8450	  59.9738	   0.0000	
 32.3242	  62.5848	   0.0000	
 33.9854	  68.1609	   0.0000	
 31.7706	  69.7258	   0.0000	
 32.7182	  71.9794	   0.0000	
 32.2043	  74.3550	   0.0000	
 33.3643	  77.8853	   0.0000	
 33.2346	  82.1699	   0.0000	
 36.7488	  81.3444	   0.0000	
 37.7740	  79.9785	   0.0000	
 40.2211	  82.1092	   0.0000	
 43.3897	  83.9951	   0.0000	
 46.8821	  81.6102	   0.0000	
 47.5062	  83.5253	   0.0000	
 45.8154	  87.9612	   0.0000	
 40.2080	  90.5224	   0.0000	
 50.2852	  87.0239	   0.0000	
 51.6276	  80.1244	   0.0000	
 31.2514	  60.4532	   0.0000	
 28.9952	  62.8029	   0.0000	
 27.8722	  66.3038	   0.0000	
 31.1727	  70.3022	   0.0000	
 29.4017	  71.5526	   0.0000	
 29.7796	  74.9857	   0.0000	
 29.4310	  77.7041	   0.0000	
 28.9775	  81.0534	   0.0000	
 34.6288	  80.4351	   0.0000	
 34.0246	  81.7716	   0.0000	
 39.7267	  85.0702	   0.0000	
 37.0779	  82.8602	   0.0000	
 40.9947	  84.8700	   0.0000	
 47.2935	  84.0521	   0.0000	
 43.2456	  86.9038	   0.0000	
 42.6276	  93.1525	   0.0000	
 41.9394	  96.8230	   0.0000	
 47.5231	  88.7439	   0.0000	
 57.5934	  79.6984	   0.0000	
 26.0813	  58.2446	   0.0000	
 22.4368	  64.1609	   0.0000	
 26.9800	  67.7231	   0.0000	
 28.3965	  71.7099	   0.0000	
 25.7523	  73.9197	   0.0000	
 27.0920	  76.7053	   0.0000	
 26.4965	  78.3031	   0.0000	
 32.5454	  75.8579	   0.0000	
 33.9077	  75.4698	   0.0000	
 26.5666	  81.7837	   0.0000	
 34.7935	  88.4745	   0.0000	
 39.6813	  92.1768	   0.0000	
 39.1084	  90.2724	   0.0000	
 42.5899	  91.5170	   0.0000	
 42.1606	  98.2792	   0.0000	
 35.4424	 104.2896	   0.0000	
 40.9026	 103.4996	   0.0000	
 55.1710	  92.1176	   0.0000	
 55.4768	  80.7312	   0.0000	
 19.9083	  53.8203	   0.0000	
 22.7524	  56.8530	   0.0000	
 11.9501	  66.9086	   0.0000	
 20.8268	  80.8024	   0.0000	
 22.8815	  86.2497	   0.0000	
 25.2215	  89.2278	   0.0000	
 32.5622	  87.7642	   0.0000	
 33.7249	  87.1802	   0.0000	
 23.9491	  94.3116	   0.0000	
 30.1593	  92.1601	   0.0000	
 26.0950	  89.1889	   0.0000	
 31.4003	  96.3720	   0.0000	
 42.2554	 101.1423	   0.0000	
 36.9147	  99.3815	   0.0000	
 33.4251	 106.3879	   0.0000	
 34.2656	 109.7839	   0.0000	
 49.8236	  98.3189	   0.0000	
 47.1614	  86.5528	   0.0000	
 66.2559	  73.2565	   0.0000	
  2.3766	  46.3391	   0.0000	
 -4.5210	  54.0690	   0.0000	
 10.3983	  62.8307	   0.0000	
 15.0911	  68.7167	   0.0000	
 20.0698	  72.7285	   0.0000	
 32.1739	  74.1353	   0.0000	
 33.3323	  74.1674	   0.0000	
 18.5037	  79.8216	   0.0000	
 27.4887	  79.9198	   0.0000	
 21.0141	  84.4997	   0.0000	
 31.0668	  91.1001	   0.0000	
 16.7827	  90.1107	   0.0000	
 27.1684	  98.8459	   0.0000	
 43.2266	 103.2048	   0.0000	
 24.1224	 112.4581	   0.0000	
 33.1196	 119.1036	   0.0000	
 33.4186	 113.1743	   0.0000	
 65.0252	 105.8081	   0.0000	
 73.7480	  87.4507	   0.0000	
 -6.4415	  61.8758	   0.0000	
  3.1479	  69.8151	   0.0000	
  8.0988	  75.5368	   0.0000	
 20.8894	  79.8108	   0.0000	
 30.7302	  84.1784	   0.0000	
 28.5287	  84.2984	   0.0000	
 11.3241	  92.9361	   0.0000	
 20.4453	  96.9246	   0.0000	
 16.7990	 103.5509	   0.0000	
 12.6888	 108.5373	   0.0000	
 15.4128	 113.0767	   0.0000	
 21.6741	 121.1616	   0.0000	
  2.6328	 126.0853	   0.0000	
 20.3540	 132.1577	   0.0000	
 14.4495	 146.2291	   0.0000	
  8.5996	 158.0023	   0.0000	
 25.9548	 152.1232	   0.0000	
 55.0918	 135.2127	   0.0000	
 67.5473	 109.7859	   0.0000	
 -2.2837	  28.9886	   0.0000	
  4.1246	  34.4020	   0.0000	
 13.1725	  40.6261	   0.0000	
 24.5308	  48.0545	   0.0000	
  0.5178	  56.8804	   0.0000	
  0.5481	  57.6757	   0.0000	
  8.1041	  61.8281	   0.0000	
  0.5767	  65.5965	   0.0000	
  6.2309	  68.9789	   0.0000	
  0.4364	  71.8500	   0.0000	
  5.7246	  74.6841	   0.0000	
  0.7771	  77.7617	   0.0000	
  6.6070	  81.2307	   0.0000	
 -1.0077	  83.7186	   0.0000	
  0.2926	  83.2073	   0.0000	
 -5.1717	  87.7557	   0.0000	
 -0.7201	  86.3718	   0.0000	
 21.8987	  82.2668	   0.0000	
 56.4284	  73.0602	   0.0000	
 -0.0000	  -0.0000	   0.0000	
  0.0000	   0.0000	   0.0000	
 -0.0000	   0.0000	   0.0000	
 -0.0000	   0.0000	   0.0000	
  0.0000	  -0.0000	   0.0000	
 -0.0000	   0.0000	   0.0000	
  0.0000	   0.0000	   0.0000	
  0.0000	  -0.0000	   0.0000	
 -0.0000	  -0.0000	   0.0000	
  0.0000	   0.0000	   0.0000	
  0.0000	   0.0000	   0.0000	
  0.0000	  -0.0000	   0.0000	
 -0.0000	   0.0000	   0.0000	
 -0.0000	   0.0000	   0.0000	
 -0.0000	  -0.0000	   0.0000	
 -0.0000	  -0.0000	   0.0000	
  0.0000	  -0.0000	   0.0000	
 -0.0000	  -0.0000	   0.0000	
  0.0000	   0.0000	   0.0000	
 50.0000	  50.0000	   0.0000	
 50.0000	  -0.0000	   0.0000	
 68.2843	  50.1018	   0.0000	
 49.9977	  15.8518	   0.0000	
 85.9611	  50.1720	   0.0000	
 49.3104	  31.7418	   0.0000	
 83.1275	  54.9384	   0.0000	
 51.0801	  48.0143	   0.0000	
 82.1252	  58.9143	   0.0000	
 52.3558	  64.4662	   0.0000	
 54.4051	  78.7868	   0.0000	
 48.3342	  77.8232	   0.0000	
 49.7996	  79.2004	   0.0000	
 78.4407	 104.8359	   0.0000	
 46.0882	  77.4533	   0.0000	
 66.4370	  92.9068	   0.0000	
 45.3168	  74.0608	   0.0000	
 58.0938	  84.4438	   0.0000	
 49.3456	  68.4097	   0.0000	
 53.7588	  79.3266	   0.0000	
 47.8345	  66.6397	   0.0000	
 52.5685	  76.7139	   0.0000	
 44.5318	  65.5311	   0.0000	
 56.6556	  76.9509	   0.0000	
 38.8956	  65.0588	   0.0000	
 64.0051	  78.1461	   0.0000	
 41.8657	  59.3514	   0.0000	
 49.1285	  68.1112	   0.0000	
 34.9172	  57.4129	   0.0000	
 61.1701	  70.2069	   0.0000	
 27.3100	  55.1059	   0.0000	
 67.6602	  68.8095	   0.0000	
 17.6060	  52.3822	   0.0000	
 68.6842	  63.5775	   0.0000	
 19.5088	  40.6457	   0.0000	
 78.6514	  60.9075	   0.0000	
-21.8538	  51.1886	   0.0000	
113.2565	  71.1443	   0.0000	
 -8.9519	  22.7274	   0.0000	
104.4610	  47.3047	   0.0000	
 -0.0000	   0.0000	   0.0000	
 -0.0000	  -0.0000	   0.0000	
 50.3922	  50.0000	   0.0000	
 85.9261	 153.9567	   0.0000	
 48.7955	  49.2348	   0.0000	
 51.2780	 137.2250	   0.0000	
 46.6755	  48.7149	   0.0000	
 35.8438	 122.1125	   0.0000	
 46.1968	  47.3248	   0.0000	
 26.1212	 109.3936	   0.0000	
 43.7799	  46.9699	   0.0000	
 26.6915	 103.6863	   0.0000	
 43.2928	  45.8780	   0.0000	
 26.1661	  98.9894	   0.0000	
 43.8414	  45.1826	   0.0000	
 26.5813	  95.4714	   0.0000	
 44.5752	  44.0591	   0.0000	
 26.9022	  91.8204	   0.0000	
 43.5860	  43.5242	   0.0000	
 29.5578	  88.7880	   0.0000	
 40.0828	  43.9422	   0.0000	
 33.0648	  85.6076	   0.0000	
 40.4113	  42.4590	   0.0000	
 37.8291	  82.8532	   0.0000	
 46.5561	  38.7521	   0.0000	
 27.9476	  74.5343	   0.0000	
 41.2293	  39.0669	   0.0000	
 37.8923	  73.4537	   0.0000	
 40.6987	  36.2255	   0.0000	
 40.5538	  68.1945	   0.0000	
 38.4511	  32.4253	   0.0000	
 41.8283	  62.3301	   0.0000	
 41.3038	  26.6935	   0.0000	
 47.1849	  54.4480	   0.0000	
 21.8479	  26.2177	   0.0000	
 67.4631	  50.0574	   0.0000	
 18.2034	  18.2854	   0.0000	
 68.9220	  37.2446	   0.0000	
 35.1209	   2.5086	   0.0000	
 60.5321	  20.7094	   0.0000	
 24.6058	   0.5505	   0.0000	
 -1.3279	  -1.2192	   0.0000	
 -0.0000	   0.0000	   0.0000	
 -0.0000	  -0.0000	   0.0000	
 57.5667	  50.0000	   0.0000	
-42.9816	  68.3994	   0.0000	
 52.7133	  50.8207	   0.0000	
-11.5407	  69.7886	   0.0000	
 50.1023	  51.1709	   0.0000	
  3.2284	  69.6210	   0.0000	
 47.3652	  51.9027	   0.0000	
 10.6533	  69.0736	   0.0000	
 47.4648	  52.1434	   0.0000	
 12.6558	  67.7113	   0.0000	
 48.2022	  52.4982	   0.0000	
 13.3318	  66.4337	   0.0000	
 47.5680	  53.1998	   0.0000	
 14.6029	  64.7930	   0.0000	
 46.9875	  53.1029	   0.0000	
 16.5935	  62.8766	   0.0000	
 46.6588	  53.8254	   0.0000	
 17.8759	  61.1596	   0.0000	
 45.6318	  54.4121	   0.0000	
 20.8837	  60.0592	   0.0000	
 51.6458	  54.0392	   0.0000	
 15.4574	  58.2023	   0.0000	
 51.5697	  54.3415	   0.0000	
 17.3002	  55.2499	   0.0000	
 55.3044	  54.3090	   0.0000	
 18.5211	  52.2940	   0.0000	
 57.3104	  54.8233	   0.0000	
 10.2674	  48.3646	   0.0000	
 60.8761	  54.8196	   0.0000	
 14.7178	  45.3691	   0.0000	
 61.2959	  51.8383	   0.0000	
 19.8551	  38.9551	   0.0000	
 59.5326	  50.3899	   0.0000	
 24.0261	  34.4554	   0.0000	
 64.5432	  50.2394	   0.0000	
 27.5550	  30.3602	   0.0000	
 61.3894	  48.8738	   0.0000	
  2.0744	  30.3132	   0.0000	
 37.9823	  48.0513	   0.0000	
  3.4571	  35.6720	   0.0000	
 27.5199	  45.2481	   0.0000	
 -0.0716	  37.9940	   0.0000	
 44.2716	  50.0000	   0.0000	
 11.5235	  54.9325	   0.0000	
 46.1872	  51.0800	   0.0000	
 -2.3046	  60.0492	   0.0000	
 44.6987	  51.4063	   0.0000	
  1.3958	  60.6363	   0.0000	
 43.0397	  51.4800	   0.0000	
  5.2357	  60.0526	   0.0000	
 42.8475	  51.9317	   0.0000	
  6.5327	  59.9435	   0.0000	
 43.0579	  52.4817	   0.0000	
  7.4163	  59.9122	   0.0000	
 41.4651	  52.6301	   0.0000	
 10.1766	  59.1660	   0.0000	
 42.0472	  53.5131	   0.0000	
  8.7340	  60.0842	   0.0000	
 43.1798	  54.0889	   0.0000	
 11.2570	  59.2657	   0.0000	
 42.6434	  54.8446	   0.0000	
 13.2016	  58.9430	   0.0000	
 44.0244	  56.1938	   0.0000	
 14.3098	  59.1868	   0.0000	
 44.4707	  57.1319	   0.0000	
 12.1810	  59.2649	   0.0000	
 46.0512	  59.0865	   0.0000	
  6.6631	  61.1413	   0.0000	
 47.1168	  61.3140	   0.0000	
 11.4045	  61.3975	   0.0000	
 47.3795	  62.7953	   0.0000	
 10.0755	  61.4984	   0.0000	
 54.8092	  67.8051	   0.0000	
  6.5208	  63.2626	   0.0000	
 51.7789	  70.0946	   0.0000	
 10.1970	  62.2943	   0.0000	
 50.2921	  73.2376	   0.0000	
 14.8505	  60.8669	   0.0000	
 51.2415	  76.6234	   0.0000	
 19.6973	  58.3086	   0.0000	
 43.5402	  80.9661	   0.0000	
 19.2109	  64.3614	   0.0000	
 23.6361	  80.7990	   0.0000	
 21.2590	  68.4829	   0.0000	
 45.9101	  50.0000	   0.0000	
 -0.9753	  45.7749	   0.0000	
 45.4926	  49.7655	   0.0000	
  2.5960	  44.9991	   0.0000	
 44.5296	  49.6503	   0.0000	
  5.2541	  44.3007	   0.0000	
 43.1564	  49.2844	   0.0000	
  8.0835	  43.5675	   0.0000	
 43.1591	  49.5291	   0.0000	
  6.6722	  45.3091	   0.0000	
 43.1249	  49.7298	   0.0000	
  5.5796	  47.2753	   0.0000	
 41.8882	  49.2821	   0.0000	
  7.1239	  47.5526	   0.0000	
 41.8110	  49.5437	   0.0000	
  8.1327	  48.5377	   0.0000	
 41.1485	  49.5623	   0.0000	
 10.0884	  48.7891	   0.0000	
 40.1869	  49.1778	   0.0000	
 11.1653	  49.3013	   0.0000	
 42.0699	  50.4335	   0.0000	
  9.9511	  51.0467	   0.0000	
 37.9720	  49.1339	   0.0000	
 15.1209	  49.5939	   0.0000	
 39.5182	  50.7748	   0.0000	
 15.0682	  50.6082	   0.0000	
 40.2977	  51.8981	   0.0000	
 12.8173	  52.6421	   0.0000	
 40.1964	  53.6913	   0.0000	
 14.6858	  54.5264	   0.0000	
 39.5855	  54.6738	   0.0000	
 14.1672	  55.8097	   0.0000	
 39.1285	  57.2601	   0.0000	
 14.4330	  58.2163	   0.0000	
 40.3454	  62.1386	   0.0000	
 14.1965	  61.2523	   0.0000	
 36.3565	  64.5334	   0.0000	
 21.1625	  61.0804	   0.0000	
 41.9706	  70.7139	   0.0000	
 17.3472	  64.2572	   0.0000	
 24.2731	  69.0606	   0.0000	
 37.4057	  58.6108	   0.0000	
 51.7649	  50.0000	   0.0000	
  0.8740	  31.1262	   0.0000	
 48.9759	  49.4449	   0.0000	
  2.3326	  32.4760	   0.0000	
 45.9357	  48.8327	   0.0000	
  3.7515	  33.8399	   0.0000	
 44.8400	  48.7210	   0.0000	
  5.0749	  35.1967	   0.0000	
 45.3680	  49.1823	   0.0000	
  7.3642	  36.2177	   0.0000	
 45.4838	  49.5231	   0.0000	
  7.9923	  38.1539	   0.0000	
 42.4279	  47.5909	   0.0000	
  9.1926	  39.0735	   0.0000	
 41.8597	  47.6509	   0.0000	
 10.3053	  39.3927	   0.0000	
 41.7647	  48.0660	   0.0000	
 10.9645	  40.2551	   0.0000	
 40.7679	  48.1149	   0.0000	
 12.1587	  41.6324	   0.0000	
 40.4021	  48.3025	   0.0000	
 13.8573	  42.6429	   0.0000	
 39.4850	  48.2407	   0.0000	
 14.9551	  43.7493	   0.0000	
 39.3149	  48.8200	   0.0000	
 15.5156	  45.5393	   0.0000	
 38.8316	  49.5044	   0.0000	
 15.6253	  47.4711	   0.0000	
 38.6088	  48.7792	   0.0000	
 15.9695	  47.4840	   0.0000	
 37.8312	  49.2629	   0.0000	
 16.1867	  48.3933	   0.0000	
 34.9606	  48.7507	   0.0000	
 23.8070	  46.4144	   0.0000	
 37.7498	  52.3122	   0.0000	
 17.4060	  53.3138	   0.0000	
 34.1408	  51.6543	   0.0000	
 21.8472	  53.0709	   0.0000	
 31.0600	  52.1327	   0.0000	
 22.8203	  55.5602	   0.0000	
 32.3917	  57.3502	   0.0000	
 21.3287	  58.2246	   0.0000	
  0.0000	   0.0000	   0.0000	
  0.0000	   0.0000	   0.0000	
 -0.0000	   0.0000	   0.0000	
  0.0000	  -0.0000	   0.0000	
 -0.0000	   0.0000	   0.0000	
  0.0000	   0.0000	   0.0000	
 -0.0000	   0.0000	   0.0000	
 -0.0000	  -0.0000	   0.0000	
 -0.0000	  -0.0000	   0.0000	
 -0.0000	   0.0000	   0.0000	
 -0.0000	  -0.0000	   0.0000	
 -0.0000	  -0.0000	   0.0000	
 -0.0000	   0.0000	   0.0000	
 -0.0000	  -0.0000	   0.0000	