# vtk DataFile Version 3.0 
Results 
ASCII 
DATASET UNSTRUCTURED_GRID 
POINTS 	    1085 float 
  0.0000	   0.6667	  0.0000	 
  0.0000	   1.3333	  0.0000	 
  0.0000	   2.0000	  0.0000	 
  0.0000	   2.6667	  0.0000	 
  0.0000	   3.3333	  0.0000	 
  0.0000	   4.0000	  0.0000	 
  0.0000	   4.6667	  0.0000	 
  0.0000	   5.3333	  0.0000	 
  0.0000	   6.0000	  0.0000	 
  0.0000	   6.6667	  0.0000	 
  0.0000	   7.3333	  0.0000	 
  0.0000	   8.0000	  0.0000	 
  0.0000	   8.6667	  0.0000	 
  0.0000	   9.3333	  0.0000	 
  0.0000	  10.0000	  0.0000	 
  0.0000	  10.6667	  0.0000	 
  0.0000	  11.3333	  0.0000	 
  0.2500	   0.9383	  0.0000	 
  0.2500	   1.5710	  0.0000	 
  0.2500	   2.2037	  0.0000	 
  0.2500	   2.8364	  0.0000	 
  0.2500	   3.4691	  0.0000	 
  0.2500	   4.1019	  0.0000	 
  0.2500	   4.7346	  0.0000	 
  0.2500	   5.3673	  0.0000	 
  0.2500	   6.0000	  0.0000	 
  0.2500	   6.6327	  0.0000	 
  0.2500	   7.2654	  0.0000	 
  0.2500	   7.8981	  0.0000	 
  0.2500	   8.5309	  0.0000	 
  0.2500	   9.1636	  0.0000	 
  0.2500	   9.7963	  0.0000	 
  0.2500	  10.4290	  0.0000	 
  0.2500	  11.0617	  0.0000	 
  0.5000	   1.2099	  0.0000	 
  0.5000	   1.8086	  0.0000	 
  0.5000	   2.4074	  0.0000	 
  0.5000	   3.0062	  0.0000	 
  0.5000	   3.6049	  0.0000	 
  0.5000	   4.2037	  0.0000	 
  0.5000	   4.8025	  0.0000	 
  0.5000	   5.4012	  0.0000	 
  0.5000	   6.0000	  0.0000	 
  0.5000	   6.5988	  0.0000	 
  0.5000	   7.1975	  0.0000	 
  0.5000	   7.7963	  0.0000	 
  0.5000	   8.3951	  0.0000	 
  0.5000	   8.9938	  0.0000	 
  0.5000	   9.5926	  0.0000	 
  0.5000	  10.1914	  0.0000	 
  0.5000	  10.7901	  0.0000	 
  0.7500	   1.4815	  0.0000	 
  0.7500	   2.0463	  0.0000	 
  0.7500	   2.6111	  0.0000	 
  0.7500	   3.1759	  0.0000	 
  0.7500	   3.7407	  0.0000	 
  0.7500	   4.3056	  0.0000	 
  0.7500	   4.8704	  0.0000	 
  0.7500	   5.4352	  0.0000	 
  0.7500	   6.0000	  0.0000	 
  0.7500	   6.5648	  0.0000	 
  0.7500	   7.1296	  0.0000	 
  0.7500	   7.6944	  0.0000	 
  0.7500	   8.2593	  0.0000	 
  0.7500	   8.8241	  0.0000	 
  0.7500	   9.3889	  0.0000	 
  0.7500	   9.9537	  0.0000	 
  0.7500	  10.5185	  0.0000	 
  1.0000	   1.7531	  0.0000	 
  1.0000	   2.2840	  0.0000	 
  1.0000	   2.8148	  0.0000	 
  1.0000	   3.3457	  0.0000	 
  1.0000	   3.8765	  0.0000	 
  1.0000	   4.4074	  0.0000	 
  1.0000	   4.9383	  0.0000	 
  1.0000	   5.4691	  0.0000	 
  1.0000	   6.0000	  0.0000	 
  1.0000	   6.5309	  0.0000	 
  1.0000	   7.0617	  0.0000	 
  1.0000	   7.5926	  0.0000	 
  1.0000	   8.1235	  0.0000	 
  1.0000	   8.6543	  0.0000	 
  1.0000	   9.1852	  0.0000	 
  1.0000	   9.7160	  0.0000	 
  1.0000	  10.2469	  0.0000	 
  1.2500	   2.0247	  0.0000	 
  1.2500	   2.5216	  0.0000	 
  1.2500	   3.0185	  0.0000	 
  1.2500	   3.5154	  0.0000	 
  1.2500	   4.0123	  0.0000	 
  1.2500	   4.5093	  0.0000	 
  1.2500	   5.0062	  0.0000	 
  1.2500	   5.5031	  0.0000	 
  1.2500	   6.0000	  0.0000	 
  1.2500	   6.4969	  0.0000	 
  1.2500	   6.9938	  0.0000	 
  1.2500	   7.4907	  0.0000	 
  1.2500	   7.9877	  0.0000	 
  1.2500	   8.4846	  0.0000	 
  1.2500	   8.9815	  0.0000	 
  1.2500	   9.4784	  0.0000	 
  1.2500	   9.9753	  0.0000	 
  1.5000	   2.2963	  0.0000	 
  1.5000	   2.7593	  0.0000	 
  1.5000	   3.2222	  0.0000	 
  1.5000	   3.6852	  0.0000	 
  1.5000	   4.1481	  0.0000	 
  1.5000	   4.6111	  0.0000	 
  1.5000	   5.0741	  0.0000	 
  1.5000	   5.5370	  0.0000	 
  1.5000	   6.0000	  0.0000	 
  1.5000	   6.4630	  0.0000	 
  1.5000	   6.9259	  0.0000	 
  1.5000	   7.3889	  0.0000	 
  1.5000	   7.8519	  0.0000	 
  1.5000	   8.3148	  0.0000	 
  1.5000	   8.7778	  0.0000	 
  1.5000	   9.2407	  0.0000	 
  1.5000	   9.7037	  0.0000	 
  1.7500	   2.5679	  0.0000	 
  1.7500	   2.9969	  0.0000	 
  1.7500	   3.4259	  0.0000	 
  1.7500	   3.8549	  0.0000	 
  1.7500	   4.2840	  0.0000	 
  1.7500	   4.7130	  0.0000	 
  1.7500	   5.1420	  0.0000	 
  1.7500	   5.5710	  0.0000	 
  1.7500	   6.0000	  0.0000	 
  1.7500	   6.4290	  0.0000	 
  1.7500	   6.8580	  0.0000	 
  1.7500	   7.2870	  0.0000	 
  1.7500	   7.7160	  0.0000	 
  1.7500	   8.1451	  0.0000	 
  1.7500	   8.5741	  0.0000	 
  1.7500	   9.0031	  0.0000	 
  1.7500	   9.4321	  0.0000	 
  2.0000	   2.8395	  0.0000	 
  2.0000	   3.2346	  0.0000	 
  2.0000	   3.6296	  0.0000	 
  2.0000	   4.0247	  0.0000	 
  2.0000	   4.4198	  0.0000	 
  2.0000	   4.8148	  0.0000	 
  2.0000	   5.2099	  0.0000	 
  2.0000	   5.6049	  0.0000	 
  2.0000	   6.0000	  0.0000	 
  2.0000	   6.3951	  0.0000	 
  2.0000	   6.7901	  0.0000	 
  2.0000	   7.1852	  0.0000	 
  2.0000	   7.5802	  0.0000	 
  2.0000	   7.9753	  0.0000	 
  2.0000	   8.3704	  0.0000	 
  2.0000	   8.7654	  0.0000	 
  2.0000	   9.1605	  0.0000	 
  2.2500	   3.1111	  0.0000	 
  2.2500	   3.4722	  0.0000	 
  2.2500	   3.8333	  0.0000	 
  2.2500	   4.1944	  0.0000	 
  2.2500	   4.5556	  0.0000	 
  2.2500	   4.9167	  0.0000	 
  2.2500	   5.2778	  0.0000	 
  2.2500	   5.6389	  0.0000	 
  2.2500	   6.0000	  0.0000	 
  2.2500	   6.3611	  0.0000	 
  2.2500	   6.7222	  0.0000	 
  2.2500	   7.0833	  0.0000	 
  2.2500	   7.4444	  0.0000	 
  2.2500	   7.8056	  0.0000	 
  2.2500	   8.1667	  0.0000	 
  2.2500	   8.5278	  0.0000	 
  2.2500	   8.8889	  0.0000	 
  2.5000	   3.3827	  0.0000	 
  2.5000	   3.7099	  0.0000	 
  2.5000	   4.0370	  0.0000	 
  2.5000	   4.3642	  0.0000	 
  2.5000	   4.6914	  0.0000	 
  2.5000	   5.0185	  0.0000	 
  2.5000	   5.3457	  0.0000	 
  2.5000	   5.6728	  0.0000	 
  2.5000	   6.0000	  0.0000	 
  2.5000	   6.3272	  0.0000	 
  2.5000	   6.6543	  0.0000	 
  2.5000	   6.9815	  0.0000	 
  2.5000	   7.3086	  0.0000	 
  2.5000	   7.6358	  0.0000	 
  2.5000	   7.9630	  0.0000	 
  2.5000	   8.2901	  0.0000	 
  2.5000	   8.6173	  0.0000	 
  2.7500	   3.6543	  0.0000	 
  2.7500	   3.9475	  0.0000	 
  2.7500	   4.2407	  0.0000	 
  2.7500	   4.5340	  0.0000	 
  2.7500	   4.8272	  0.0000	 
  2.7500	   5.1204	  0.0000	 
  2.7500	   5.4136	  0.0000	 
  2.7500	   5.7068	  0.0000	 
  2.7500	   6.0000	  0.0000	 
  2.7500	   6.2932	  0.0000	 
  2.7500	   6.5864	  0.0000	 
  2.7500	   6.8796	  0.0000	 
  2.7500	   7.1728	  0.0000	 
  2.7500	   7.4660	  0.0000	 
  2.7500	   7.7593	  0.0000	 
  2.7500	   8.0525	  0.0000	 
  2.7500	   8.3457	  0.0000	 
  3.0000	   3.9259	  0.0000	 
  3.0000	   4.1852	  0.0000	 
  3.0000	   4.4444	  0.0000	 
  3.0000	   4.7037	  0.0000	 
  3.0000	   4.9630	  0.0000	 
  3.0000	   5.2222	  0.0000	 
  3.0000	   5.4815	  0.0000	 
  3.0000	   5.7407	  0.0000	 
  3.0000	   6.0000	  0.0000	 
  3.0000	   6.2593	  0.0000	 
  3.0000	   6.5185	  0.0000	 
  3.0000	   6.7778	  0.0000	 
  3.0000	   7.0370	  0.0000	 
  3.0000	   7.2963	  0.0000	 
  3.0000	   7.5556	  0.0000	 
  3.0000	   7.8148	  0.0000	 
  3.0000	   8.0741	  0.0000	 
  3.2500	   4.1975	  0.0000	 
  3.2500	   4.4228	  0.0000	 
  3.2500	   4.6481	  0.0000	 
  3.2500	   4.8735	  0.0000	 
  3.2500	   5.0988	  0.0000	 
  3.2500	   5.3241	  0.0000	 
  3.2500	   5.5494	  0.0000	 
  3.2500	   5.7747	  0.0000	 
  3.2500	   6.0000	  0.0000	 
  3.2500	   6.2253	  0.0000	 
  3.2500	   6.4506	  0.0000	 
  3.2500	   6.6759	  0.0000	 
  3.2500	   6.9012	  0.0000	 
  3.2500	   7.1265	  0.0000	 
  3.2500	   7.3519	  0.0000	 
  3.2500	   7.5772	  0.0000	 
  3.2500	   7.8025	  0.0000	 
  3.5000	   4.4691	  0.0000	 
  3.5000	   4.6605	  0.0000	 
  3.5000	   4.8519	  0.0000	 
  3.5000	   5.0432	  0.0000	 
  3.5000	   5.2346	  0.0000	 
  3.5000	   5.4259	  0.0000	 
  3.5000	   5.6173	  0.0000	 
  3.5000	   5.8086	  0.0000	 
  3.5000	   6.0000	  0.0000	 
  3.5000	   6.1914	  0.0000	 
  3.5000	   6.3827	  0.0000	 
  3.5000	   6.5741	  0.0000	 
  3.5000	   6.7654	  0.0000	 
  3.5000	   6.9568	  0.0000	 
  3.5000	   7.1481	  0.0000	 
  3.5000	   7.3395	  0.0000	 
  3.5000	   7.5309	  0.0000	 
  3.7500	   4.7407	  0.0000	 
  3.7500	   4.8981	  0.0000	 
  3.7500	   5.0556	  0.0000	 
  3.7500	   5.2130	  0.0000	 
  3.7500	   5.3704	  0.0000	 
  3.7500	   5.5278	  0.0000	 
  3.7500	   5.6852	  0.0000	 
  3.7500	   5.8426	  0.0000	 
  3.7500	   6.0000	  0.0000	 
  3.7500	   6.1574	  0.0000	 
  3.7500	   6.3148	  0.0000	 
  3.7500	   6.4722	  0.0000	 
  3.7500	   6.6296	  0.0000	 
  3.7500	   6.7870	  0.0000	 
  3.7500	   6.9444	  0.0000	 
  3.7500	   7.1019	  0.0000	 
  3.7500	   7.2593	  0.0000	 
  4.0000	   5.0123	  0.0000	 
  4.0000	   5.1358	  0.0000	 
  4.0000	   5.2593	  0.0000	 
  4.0000	   5.3827	  0.0000	 
  4.0000	   5.5062	  0.0000	 
  4.0000	   5.6296	  0.0000	 
  4.0000	   5.7531	  0.0000	 
  4.0000	   5.8765	  0.0000	 
  4.0000	   6.0000	  0.0000	 
  4.0000	   6.1235	  0.0000	 
  4.0000	   6.2469	  0.0000	 
  4.0000	   6.3704	  0.0000	 
  4.0000	   6.4938	  0.0000	 
  4.0000	   6.6173	  0.0000	 
  4.0000	   6.7407	  0.0000	 
  4.0000	   6.8642	  0.0000	 
  4.0000	   6.9877	  0.0000	 
  4.2500	   5.2840	  0.0000	 
  4.2500	   5.3735	  0.0000	 
  4.2500	   5.4630	  0.0000	 
  4.2500	   5.5525	  0.0000	 
  4.2500	   5.6420	  0.0000	 
  4.2500	   5.7315	  0.0000	 
  4.2500	   5.8210	  0.0000	 
  4.2500	   5.9105	  0.0000	 
  4.2500	   6.0000	  0.0000	 
  4.2500	   6.0895	  0.0000	 
  4.2500	   6.1790	  0.0000	 
  4.2500	   6.2685	  0.0000	 
  4.2500	   6.3580	  0.0000	 
  4.2500	   6.4475	  0.0000	 
  4.2500	   6.5370	  0.0000	 
  4.2500	   6.6265	  0.0000	 
  4.2500	   6.7160	  0.0000	 
  4.5000	   5.5556	  0.0000	 
  4.5000	   5.6111	  0.0000	 
  4.5000	   5.6667	  0.0000	 
  4.5000	   5.7222	  0.0000	 
  4.5000	   5.7778	  0.0000	 
  4.5000	   5.8333	  0.0000	 
  4.5000	   5.8889	  0.0000	 
  4.5000	   5.9444	  0.0000	 
  4.5000	   6.0000	  0.0000	 
  4.5000	   6.0556	  0.0000	 
  4.5000	   6.1111	  0.0000	 
  4.5000	   6.1667	  0.0000	 
  4.5000	   6.2222	  0.0000	 
  4.5000	   6.2778	  0.0000	 
  4.5000	   6.3333	  0.0000	 
  4.5000	   6.3889	  0.0000	 
  4.5000	   6.4444	  0.0000	 
  0.0000	   0.0000	  0.0000	 
  0.0000	  12.0000	  0.0000	 
  0.2500	   0.3056	  0.0000	 
  0.2500	  11.6944	  0.0000	 
  0.5000	   0.6111	  0.0000	 
  0.5000	  11.3889	  0.0000	 
  0.7500	   0.9167	  0.0000	 
[...]
POINT_DATA 	    1085 
VECTORS U float 
 51.3000	  -0.0000	   0.0000	
 51.3000	   0.0000	   0.0000	
 51.3000	  -0.0000	   0.0000	
 51.3000	   0.0000	   0.0000	
 51.3000	   0.0000	   0.0000	
 51.3000	   0.0000	   0.0000	
 51.3000	   0.0000	   0.0000	
 51.3000	  -0.0000	   0.0000	
 51.3000	   0.0000	   0.0000	
 51.3000	  -0.0000	   0.0000	
 51.3000	   0.0000	   0.0000	
 51.3000	  -0.0000	   0.0000	
 51.3000	  -0.0000	   0.0000	
 51.3000	   0.0000	   0.0000	
 51.3000	  -0.0000	   0.0000	
 51.3000	   0.0000	   0.0000	
 51.3000	  -0.0000	   0.0000	
  5.9070	   3.3935	   0.0000	
 55.9773	  -5.0816	   0.0000	
 50.3389	   1.0556	   0.0000	
 51.7483	  -2.9012	   0.0000	
 50.8116	   0.1058	   0.0000	
 51.4709	  -0.5211	   0.0000	
 51.2363	  -0.2796	   0.0000	
 51.3750	  -0.3609	   0.0000	
 51.0033	   0.2723	   0.0000	
 51.3381	   1.1917	   0.0000	
 51.2058	   0.9119	   0.0000	
 51.3225	   1.6508	   0.0000	
 51.4305	   0.9989	   0.0000	
 51.4590	   0.9351	   0.0000	
 51.4143	   0.5178	   0.0000	
 51.3635	   0.6090	   0.0000	
 51.3719	   0.1213	   0.0000	
 30.9694	 -52.7347	   0.0000	
 53.7144	   5.6454	   0.0000	
 50.6330	 -13.5882	   0.0000	
 50.9085	  -4.5084	   0.0000	
 52.1611	  -9.0655	   0.0000	
 51.7531	 -11.3088	   0.0000	
 50.9536	 -10.1907	   0.0000	
 51.0184	  -9.0325	   0.0000	
 50.3274	  -7.3867	   0.0000	
 50.7892	  -5.6073	   0.0000	
 51.1586	  -3.9235	   0.0000	
 50.6197	  -3.1324	   0.0000	
 51.2739	  -0.5934	   0.0000	
 51.3745	   0.4913	   0.0000	
 51.4082	   0.4752	   0.0000	
 51.2254	   0.2963	   0.0000	
 51.4977	   0.1298	   0.0000	
  1.7510	 -31.6950	   0.0000	
 72.0645	 -21.4823	   0.0000	
 44.7416	 -11.9561	   0.0000	
 53.0090	 -14.1995	   0.0000	
 53.5394	 -13.4444	   0.0000	
 50.6109	 -11.9326	   0.0000	
 50.4145	 -10.0284	   0.0000	
 50.2763	  -8.4223	   0.0000	
 49.7834	  -6.9922	   0.0000	
 50.1170	  -5.8915	   0.0000	
 50.4647	  -4.6086	   0.0000	
 50.3758	  -3.3141	   0.0000	
 49.9191	  -2.4850	   0.0000	
 50.7918	  -1.1940	   0.0000	
 51.3036	  -0.5249	   0.0000	
 51.4435	  -0.0154	   0.0000	
 51.4912	  -0.7226	   0.0000	
 38.3884	 -55.8206	   0.0000	
 47.1942	 -14.0846	   0.0000	
 49.9094	 -23.0994	   0.0000	
 51.2165	 -16.4956	   0.0000	
 52.1452	 -12.5832	   0.0000	
 49.6016	 -11.7572	   0.0000	
 49.7050	  -9.8144	   0.0000	
 49.5993	  -8.5444	   0.0000	
 49.1763	  -7.1044	   0.0000	
 49.5694	  -5.7887	   0.0000	
 49.8711	  -4.5453	   0.0000	
 49.9498	  -3.4392	   0.0000	
 49.6366	  -2.5032	   0.0000	
 50.4329	  -2.3711	   0.0000	
 50.9774	  -1.9782	   0.0000	
 51.0081	  -1.1027	   0.0000	
 51.8999	  -1.1333	   0.0000	
 31.1306	 -39.0590	   0.0000	
 51.6288	 -27.3685	   0.0000	
 46.0213	 -23.7957	   0.0000	
 49.3818	 -16.8371	   0.0000	
 50.9791	 -13.4642	   0.0000	
 48.4304	 -11.5901	   0.0000	
 49.1260	  -9.9282	   0.0000	
 48.7795	  -8.4134	   0.0000	
 48.5789	  -7.0307	   0.0000	
 48.9112	  -5.8184	   0.0000	
 49.2360	  -4.5273	   0.0000	
 49.5098	  -3.5056	   0.0000	
 49.3308	  -2.6947	   0.0000	
 50.2020	  -2.6987	   0.0000	
 50.8068	  -2.8602	   0.0000	
 50.5563	  -2.3318	   0.0000	
 51.5065	  -2.2310	   0.0000	
 38.8049	 -24.9198	   0.0000	
 47.8482	 -17.1835	   0.0000	
 44.4238	 -16.7731	   0.0000	
 48.8642	 -15.0377	   0.0000	
 49.3623	 -12.2143	   0.0000	
 47.6677	 -11.5034	   0.0000	
 48.4073	  -9.8810	   0.0000	
 47.9490	  -8.4989	   0.0000	
 47.8922	  -7.0614	   0.0000	
 48.2455	  -5.7372	   0.0000	
 48.5438	  -4.5151	   0.0000	
 49.0136	  -3.4622	   0.0000	
 48.9829	  -2.6056	   0.0000	
 49.8176	  -2.3449	   0.0000	
 50.5757	  -1.9659	   0.0000	
 50.3352	  -1.1622	   0.0000	
 51.0914	  -1.5176	   0.0000	
 43.3240	 -17.8077	   0.0000	
 45.2404	 -15.1491	   0.0000	
 46.0245	 -16.0123	   0.0000	
 47.6390	 -13.5280	   0.0000	
 48.4616	 -11.7283	   0.0000	
 46.9067	 -11.0116	   0.0000	
 47.6927	  -9.5812	   0.0000	
 47.0960	  -8.3670	   0.0000	
 47.1884	  -6.9914	   0.0000	
 47.4690	  -5.6951	   0.0000	
 47.8400	  -4.4264	   0.0000	
 48.4145	  -3.4373	   0.0000	
 48.5804	  -2.5807	   0.0000	
 49.3661	  -2.3093	   0.0000	
 50.0077	  -1.9657	   0.0000	
 50.0608	  -1.0008	   0.0000	
 50.8539	  -1.5467	   0.0000	
 44.6651	 -12.6380	   0.0000	
 45.8336	 -16.1830	   0.0000	
 45.6306	 -14.2004	   0.0000	
 47.1049	 -13.2380	   0.0000	
 47.5097	 -11.6521	   0.0000	
 46.2020	 -11.0690	   0.0000	
 46.9551	  -9.5827	   0.0000	
 46.1610	  -8.3524	   0.0000	
 46.3921	  -6.8742	   0.0000	
 46.6351	  -5.5446	   0.0000	
 47.0679	  -4.2876	   0.0000	
 47.7342	  -3.3050	   0.0000	
 48.0999	  -2.5058	   0.0000	
 48.8854	  -2.1838	   0.0000	
 49.5203	  -1.8388	   0.0000	
 49.4866	  -1.1116	   0.0000	
 50.7972	  -1.6041	   0.0000	
 50.0279	  -9.5399	   0.0000	
 43.8268	 -14.7370	   0.0000	
 46.1221	 -12.7112	   0.0000	
 46.4619	 -12.1880	   0.0000	
 46.8640	 -11.2906	   0.0000	
 45.4206	 -10.9736	   0.0000	
 46.1530	  -9.4866	   0.0000	
 45.1366	  -8.4254	   0.0000	
 45.4683	  -6.8643	   0.0000	
 45.6956	  -5.4136	   0.0000	
 46.1985	  -4.1108	   0.0000	
 46.9847	  -3.0638	   0.0000	
 47.5292	  -2.3626	   0.0000	
 48.3446	  -1.9764	   0.0000	
 48.9467	  -1.5785	   0.0000	
 49.1048	  -0.9255	   0.0000	
 50.2490	  -1.6051	   0.0000	
 49.6939	  -8.9294	   0.0000	
 43.5456	 -15.0062	   0.0000	
 45.9891	 -12.5683	   0.0000	
 46.0339	 -12.0782	   0.0000	
 46.2427	 -11.0238	   0.0000	
 44.4554	 -10.7987	   0.0000	
 45.4408	  -9.2655	   0.0000	
 43.9984	  -8.2709	   0.0000	
 44.3883	  -6.6602	   0.0000	
 44.5911	  -5.1408	   0.0000	
 45.2314	  -3.8226	   0.0000	
 46.0553	  -2.7889	   0.0000	
 46.9467	  -2.0923	   0.0000	
 47.6755	  -1.7263	   0.0000	
 48.3269	  -1.2458	   0.0000	
 48.6497	  -0.9156	   0.0000	
 49.9420	  -1.6258	   0.0000	
 49.2992	  -8.3807	   0.0000	
 44.0766	 -13.2654	   0.0000	
 45.9856	 -13.1304	   0.0000	
 45.2143	 -12.7566	   0.0000	
 45.6033	 -11.4913	   0.0000	
 43.3410	 -11.7762	   0.0000	
 44.5537	  -9.7130	   0.0000	
 42.5720	  -8.6410	   0.0000	
 42.9604	  -6.7512	   0.0000	
 43.2483	  -4.9480	   0.0000	
 44.0953	  -3.3911	   0.0000	
 45.0112	  -2.2240	   0.0000	
 46.1359	  -1.6515	   0.0000	
 46.9940	  -1.0524	   0.0000	
 47.5841	  -0.7318	   0.0000	
 48.3834	  -0.8451	   0.0000	
 49.3659	  -1.3990	   0.0000	
 46.5588	  -9.6374	   0.0000	
 46.7716	  -9.4973	   0.0000	
 45.6019	 -11.9388	   0.0000	
 44.1451	 -12.1337	   0.0000	
 45.6076	 -11.1216	   0.0000	
 41.4373	 -11.9605	   0.0000	
 43.3248	  -8.8058	   0.0000	
 41.0223	  -8.2721	   0.0000	
 41.3464	  -6.4567	   0.0000	
 41.6726	  -4.6573	   0.0000	
 42.4769	  -3.1984	   0.0000	
 43.5698	  -1.5070	   0.0000	
 45.2914	  -0.8626	   0.0000	
 45.9498	  -0.2302	   0.0000	
 47.2030	  -0.3385	   0.0000	
 48.1713	  -1.3704	   0.0000	
 48.6532	  -1.0357	   0.0000	
 43.6578	 -14.3133	   0.0000	
 48.7979	 -10.8179	   0.0000	
 45.1134	 -13.1784	   0.0000	
 43.8560	 -14.9500	   0.0000	
 45.3756	 -12.4326	   0.0000	
 37.9771	 -14.3160	   0.0000	
 42.6215	 -10.8370	   0.0000	
 39.1919	  -9.8575	   0.0000	
 38.0722	  -6.7141	   0.0000	
 39.5981	  -3.7044	   0.0000	
 40.8400	  -1.6766	   0.0000	
 41.2454	  -0.1462	   0.0000	
 43.9905	   0.5225	   0.0000	
 45.0430	   1.3629	   0.0000	
 46.8850	   0.1144	   0.0000	
 48.6387	  -1.1137	   0.0000	
 46.0212	   1.0677	   0.0000	
 48.9563	 -11.6509	   0.0000	
 46.7330	 -12.0517	   0.0000	
 46.6258	 -13.4447	   0.0000	
 39.9215	 -14.8894	   0.0000	
 45.2204	  -9.0932	   0.0000	
 35.3005	 -16.0906	   0.0000	
 40.0035	  -9.9893	   0.0000	
 34.9815	  -6.6930	   0.0000	
 36.6236	  -6.0907	   0.0000	
 35.9023	  -4.5113	   0.0000	
 37.6914	  -1.7620	   0.0000	
 39.2559	   0.8774	   0.0000	
 41.9789	   0.3708	   0.0000	
 42.7038	   2.2716	   0.0000	
 46.9933	   1.1387	   0.0000	
 48.1240	   0.4918	   0.0000	
 48.4652	   0.1173	   0.0000	
 47.4024	 -17.9826	   0.0000	
 46.8793	 -16.5481	   0.0000	
 45.4917	 -21.2642	   0.0000	
 31.6498	 -26.0015	   0.0000	
 51.9571	 -15.8369	   0.0000	
 26.5634	 -22.5195	   0.0000	
 32.4582	 -13.3954	   0.0000	
 34.9654	 -12.6895	   0.0000	
 27.7641	  -6.4554	   0.0000	
 33.1912	  -1.1244	   0.0000	
 32.8346	   1.9909	   0.0000	
 33.9478	   5.2319	   0.0000	
 41.4825	   5.2589	   0.0000	
 38.2259	   8.2900	   0.0000	
 45.2618	   6.1921	   0.0000	
 46.5765	   3.9626	   0.0000	
 46.8477	   6.1683	   0.0000	
 54.7727	 -16.0505	   0.0000	
 48.9924	 -22.1832	   0.0000	
 14.0957	 -26.4663	   0.0000	
 43.9459	 -19.5148	   0.0000	
 43.3039	 -11.2193	   0.0000	
 13.3975	 -18.1980	   0.0000	
 32.8663	 -17.5766	   0.0000	
 21.1182	  -7.3013	   0.0000	
 23.2506	  -6.1981	   0.0000	
 23.2297	  -3.3821	   0.0000	
 26.0954	   2.8599	   0.0000	
 27.5934	   6.5267	   0.0000	
 35.5475	   5.3525	   0.0000	
 34.6394	   9.8524	   0.0000	
 33.8197	  13.1779	   0.0000	
 47.1578	   8.7099	   0.0000	
 50.8217	   5.5974	   0.0000	
 20.7522	 -56.9745	   0.0000	
 37.1510	 -51.2936	   0.0000	
 17.3841	 -49.1522	   0.0000	
 52.0549	 -43.2410	   0.0000	
-20.7549	 -36.1673	   0.0000	
 38.8248	 -26.4481	   0.0000	
 -8.2150	 -21.5890	   0.0000	
 21.2073	 -15.2771	   0.0000	
  1.1982	  -7.7148	   0.0000	
 15.5943	  -0.5915	   0.0000	
  8.0975	   5.4962	   0.0000	
 16.3738	  11.6090	   0.0000	
 12.6518	  18.0902	   0.0000	
 36.9650	  24.9585	   0.0000	
 23.9525	  29.8694	   0.0000	
 33.1296	  32.6551	   0.0000	
 35.7818	  33.5216	   0.0000	
 -0.0000	   0.0000	   0.0000	
  0.0000	   0.0000	   0.0000	
  0.0000	   0.0000	   0.0000	
 -0.0000	   0.0000	   0.0000	
 -0.0000	  -0.0000	   0.0000	
 -0.0000	   0.0000	   0.0000	
 -0.0000	   0.0000	   0.0000	
 -0.0000	  -0.0000	   0.0000	
  0.0000	   0.0000	   0.0000	
 -0.0000	   0.0000	   0.0000	
 -0.0000	  -0.0000	   0.0000	
 -0.0000	  -0.0000	   0.0000	
 -0.0000	  -0.0000	   0.0000	
  0.0000	   0.0000	   0.0000	
  0.0000	   0.0000	   0.0000	
  0.0000	   0.0000	   0.0000	
  0.0000	  -0.0000	   0.0000	
 51.3000	  -0.0000	   0.0000	
 51.3000	  -0.0000	   0.0000	
  1.9099	  -4.8930	   0.0000	
 51.5243	   0.2183	   0.0000	
-79.7635	   3.7626	   0.0000	
 51.5632	   0.3904	   0.0000	
 53.5110	 -53.2767	   0.0000	
 51.4082	   0.4930	   0.0000	
 -0.2528	 -22.1226	   0.0000	
 50.3165	   0.0804	   0.0000	
 41.0413	 -42.3487	   0.0000	
 50.2126	   0.0719	   0.0000	
 29.6139	 -27.2585	   0.0000	
 50.0638	   0.0185	   0.0000	
 32.8097	 -25.8185	   0.0000	
 49.9414	   0.0018	   0.0000	
 35.1471	 -24.2968	   0.0000	
 49.5422	  -0.0979	   0.0000	
 33.9660	 -20.9894	   0.0000	
 49.5733	   0.2187	   0.0000	
 39.6836	 -21.4981	   0.0000	
 48.7789	   0.2585	   0.0000	
 39.7127	 -19.3833	   0.0000	
 48.3525	   0.8209	   0.0000	
 40.6515	 -18.2275	   0.0000	
 47.2567	   1.2859	   0.0000	
 42.3059	 -18.0399	   0.0000	
 47.3601	   2.9099	   0.0000	
 40.4605	 -16.4719	   0.0000	
 43.1571	   2.8788	   0.0000	
 47.2270	 -21.0321	   0.0000	
 47.8874	   9.4224	   0.0000	
 42.0401	 -19.8631	   0.0000	
 40.1770	  10.7171	   0.0000	
 72.0153	 -31.3126	   0.0000	
 63.2959	  21.4872	   0.0000	
  0.0000	   0.0000	   0.0000	
 -0.0000	   0.0000	   0.0000	
 43.6636	  -0.0000	   0.0000	
 52.6051	  -0.0000	   0.0000	
 23.8888	   4.7377	   0.0000	
 51.3216	  -0.4001	   0.0000	
 31.5518	   3.7844	   0.0000	
 50.6486	  -0.6802	   0.0000	
 36.8568	   0.8665	   0.0000	
 50.6063	  -0.7454	   0.0000	
 39.1163	  -0.3195	   0.0000	
 50.7285	  -0.7491	   0.0000	
 41.1291	  -0.9793	   0.0000	
 50.8013	  -0.7683	   0.0000	
 43.8694	  -2.4611	   0.0000	
 50.5355	  -0.9298	   0.0000	
 41.4022	  -1.6110	   0.0000	
 50.9320	  -0.8279	   0.0000	
 44.6545	  -2.6889	   0.0000	
 51.5526	  -0.6635	   0.0000	
 45.7020	  -2.7844	   0.0000	
 51.8046	  -0.4226	   0.0000	
 47.1915	  -3.1062	   0.0000	
 52.1269	   0.0782	   0.0000	
 49.5003	  -3.6048	   0.0000	
 53.8659	   0.4524	   0.0000	
 50.2144	  -3.7691	   0.0000	
 54.1253	   0.6422	   0.0000	
 51.2371	  -3.0797	   0.0000	
 52.4354	  -0.5030	   0.0000	
 56.5944	  -3.7678	   0.0000	
 60.3882	   2.0027	   0.0000	
 59.2836	  -3.5103	   0.0000	
 55.7170	   0.7568	   0.0000	
 70.1697	  -2.7761	   0.0000	
 72.0795	   3.9679	   0.0000	
 40.4693	   1.3806	   0.0000	
 44.2721	   3.3691	   0.0000	
 -0.0000	   0.0000	   0.0000	
 -0.0000	  -0.0000	   0.0000	
 44.3894	  -0.0000	   0.0000	
 49.4643	   0.0000	   0.0000	
 43.4480	  -1.2743	   0.0000	
 49.5206	  -0.1873	   0.0000	
 42.2295	  -1.7973	   0.0000	
 49.4200	  -0.4289	   0.0000	
 42.9891	  -2.2885	   0.0000	
 49.5373	  -0.6937	   0.0000	
 43.8525	  -2.6158	   0.0000	
 49.4623	  -0.9871	   0.0000	
 43.3210	  -2.6844	   0.0000	
 49.5510	  -1.3115	   0.0000	
 43.4987	  -2.6210	   0.0000	
 49.4183	  -1.7650	   0.0000	
 44.2657	  -2.5058	   0.0000	
 49.6863	  -2.2069	   0.0000	
 45.1050	  -2.2462	   0.0000	
 50.2670	  -2.7626	   0.0000	
 45.0206	  -1.7163	   0.0000	
 49.6378	  -3.6447	   0.0000	
 46.2821	  -0.9514	   0.0000	
 50.8152	  -4.5240	   0.0000	
 46.6809	   0.3081	   0.0000	
 51.7515	  -5.6643	   0.0000	
 45.8315	   1.6697	   0.0000	
 49.1291	  -7.3202	   0.0000	
 46.5733	   4.2374	   0.0000	
 54.1168	  -9.7921	   0.0000	
 46.3803	   7.3591	   0.0000	
 51.4439	 -13.0418	   0.0000	
 61.2286	  11.5762	   0.0000	
 64.2222	 -16.4581	   0.0000	
 55.3450	  14.2195	   0.0000	
 61.6814	 -18.5588	   0.0000	
 31.8508	  13.5649	   0.0000	
 35.1895	 -18.3257	   0.0000	
 21.8634	   8.9520	   0.0000	
 20.9647	 -13.8437	   0.0000	
 43.5331	   0.0000	   0.0000	
 47.0093	   0.0000	   0.0000	
 42.7498	  -0.0756	   0.0000	
 47.2056	  -0.2640	   0.0000	
 42.5505	  -0.0363	   0.0000	
 47.3079	  -0.5080	   0.0000	
 42.6431	  -0.0193	   0.0000	
 47.2188	  -0.7119	   0.0000	
 42.9178	   0.1283	   0.0000	
 47.3413	  -0.9676	   0.0000	
 42.9438	   0.1748	   0.0000	
 47.1531	  -1.1585	   0.0000	
 43.1265	   0.1443	   0.0000	
 47.3125	  -1.4315	   0.0000	
 43.3866	   0.1165	   0.0000	
 47.1514	  -1.6436	   0.0000	
 43.0256	   0.0229	   0.0000	
 46.7822	  -1.8156	   0.0000	
 43.7734	   0.0999	   0.0000	
 47.3746	  -2.1468	   0.0000	
 43.2584	  -0.0505	   0.0000	
 46.6704	  -2.2281	   0.0000	
 42.4075	  -0.1362	   0.0000	
 45.5975	  -2.5084	   0.0000	
 43.9698	  -0.0705	   0.0000	
 47.2941	  -2.7386	   0.0000	
 42.5471	  -0.3390	   0.0000	
 45.3078	  -2.5465	   0.0000	
 40.9966	  -0.5763	   0.0000	
 44.6096	  -3.3506	   0.0000	
 40.2204	  -1.1810	   0.0000	
 43.4164	  -3.9160	   0.0000	
 43.3063	   2.3553	   0.0000	
 46.2648	  -8.0301	   0.0000	
 40.6754	   2.9282	   0.0000	
 45.2663	 -10.9426	   0.0000	
 36.1524	   0.5673	   0.0000	
 35.8832	  -8.4664	   0.0000	
 43.7120	  -0.0000	   0.0000	
 45.5953	   0.0000	   0.0000	
 43.9089	   0.0602	   0.0000	
 45.7378	  -0.1600	   0.0000	
 43.9545	   0.1043	   0.0000	
 45.8003	  -0.3075	   0.0000	
 43.9180	   0.0711	   0.0000	
 45.7902	  -0.4319	   0.0000	
 44.1875	   0.1332	   0.0000	
 45.8023	  -0.6019	   0.0000	
 44.1441	  -0.0429	   0.0000	
 45.8301	  -0.7968	   0.0000	
 44.0051	  -0.1899	   0.0000	
 45.8697	  -1.0122	   0.0000	
 43.9182	  -0.2804	   0.0000	
 45.7452	  -1.1824	   0.0000	
 44.0185	  -0.2684	   0.0000	
 45.7636	  -1.4079	   0.0000	
 43.6961	  -0.3676	   0.0000	
 45.6849	  -1.6427	   0.0000	
 43.6534	  -0.3948	   0.0000	
 45.6199	  -1.8850	   0.0000	
 43.6313	  -0.2848	   0.0000	
 45.4669	  -2.2240	   0.0000	
 43.4639	  -0.3035	   0.0000	
 45.3569	  -2.4956	   0.0000	
 43.7046	  -0.1265	   0.0000	
 45.4980	  -2.7909	   0.0000	
 43.1267	  -0.1550	   0.0000	
 44.8135	  -3.0641	   0.0000	
 42.8427	  -0.3284	   0.0000	
 44.3460	  -3.0356	   0.0000	
 43.3388	  -0.5273	   0.0000	
 43.9901	  -2.9080	   0.0000	
 41.0299	  -2.0698	   0.0000	
 42.4953	  -2.1712	   0.0000	
 43.4056	  -0.3007	   0.0000	
 41.6984	  -3.3206	   0.0000	
 43.9690	  -0.0000	   0.0000	
 44.9806	   0.0000	   0.0000	
 43.9290	  -0.0521	   0.0000	
 45.0141	  -0.0588	   0.0000	
 43.9328	  -0.1008	   0.0000	
 45.0476	  -0.1175	   0.0000	
 43.9437	  -0.1531	   0.0000	
 45.0661	  -0.1758	   0.0000	
 43.8872	  -0.2453	   0.0000	
 45.1228	  -0.2535	   0.0000	
 43.8146	  -0.3055	   0.0000	
 45.1167	  -0.3265	   0.0000	
 43.8606	  -0.2884	   0.0000	
 45.1249	  -0.4260	   0.0000	
 43.8192	  -0.3419	   0.0000	
 45.1348	  -0.5240	   0.0000	
 43.7229	  -0.2929	   0.0000	
 45.1329	  -0.6249	   0.0000	
 43.6051	  -0.3132	   0.0000	
 45.0540	  -0.7006	   0.0000	
 43.6859	  -0.2773	   0.0000	
 45.0799	  -0.8635	   0.0000	
 43.5781	  -0.3547	   0.0000	
 45.0070	  -0.9977	   0.0000	
 43.6593	  -0.3704	   0.0000	
 44.9461	  -1.1566	   0.0000	
 43.5232	  -0.5262	   0.0000	
 44.7699	  -1.2811	   0.0000	
 43.5438	  -0.5396	   0.0000	
 44.7249	  -1.4738	   0.0000	
 43.2959	  -0.8243	   0.0000	
 44.1501	  -1.4964	   0.0000	
 43.3471	  -0.8417	   0.0000	
 44.1994	  -1.9334	   0.0000	
 43.5174	  -0.8679	   0.0000	
 43.8716	  -2.0882	   0.0000	
 42.6253	  -1.1607	   0.0000	
 43.2560	  -2.0332	   0.0000	
  0.0000	   0.0000	   0.0000	
  0.0000	   0.0000	   0.0000	
 -0.0000	   0.0000	   0.0000	
 -0.0000	  -0.0000	   0.0000	
 -0.0000	   0.0000	   0.0000	
 -0.0000	   0.0000	   0.0000	
  0.0000	  -0.0000	   0.0000	
  0.0000	  -0.0000	   0.0000	
  0.0000	  -0.0000	   0.0000	
  0.0000	  -0.0000	   0.0000	
  0.0000	  -0.0000	   0.0000	
 -0.0000	  -0.0000	   0.0000	
  0.0000	   0.0000	   0.0000	
  0.0000	  -0.0000	   0.0000	
  0.0000	  -0.0000	   0.0000	
  0.0000	   0.0000	   0.0000	
  0.0000	   0.0000	   0.0000	
  0.0000	   0.0000	   0.0000	
 33.5517	   9.3647	   0.0000	
 31.7170	 -14.1049	   0.0000	
 31.3398	   8.7554	   0.0000	
 35.8603	 -13.7433	   0.0000	
 28.2470	   7.5270	   0.0000	
 32.2930	 -12.4935	   0.0000	
 26.4039	   6.1889	   0.0000	
 29.3821	 -10.7857	   0.0000	
 24.6980	   4.4245	   0.0000	
 26.1644	  -8.9505	   0.0000	
 23.4862	   2.8502	   0.0000	
 24.8282	  -7.1611	   0.0000	
 22.3619	   1.0474	   0.0000	
 23.5326	  -5.1249	   0.0000	
  0.0000	   0.0000	   0.0000	
  0.0000	   0.0000	   0.0000	
 35.7400	  -0.5088	   0.0000	
 33.4174	  -7.0993	   0.0000	
 35.9910	  -1.3381	   0.0000	
 33.3263	  -6.1604	   0.0000	
 36.6901	  -1.9811	   0.0000	
 34.4947	  -5.7716	   0.0000	
 36.9335	  -2.4823	   0.0000	
 35.2693	  -5.4304	   0.0000	
 37.4181	  -2.9464	   0.0000	
 36.2551	  -5.1198	   0.0000	
 37.4777	  -3.3909	   0.0000	
 36.7892	  -4.8098	   0.0000	
 37.5744	  -3.8454	   0.0000	
 37.1079	  -4.5080	   0.0000	
  0.0000	   0.0000	   0.0000	
  0.0000	   0.0000	   0.0000	
 44.2950	  -0.8281	   0.0000	
 43.2682	  -2.8048	   0.0000	
 44.6703	  -0.8419	   0.0000	
 46.0315	  -2.6180	   0.0000	
 44.3274	  -0.8945	   0.0000	
 45.9056	  -2.5052	   0.0000	
 44.3384	  -0.9954	   0.0000	
 45.5796	  -2.2728	   0.0000	
 44.2580	  -1.0745	   0.0000	
 45.3310	  -2.1482	   0.0000	
 44.2571	  -1.1785	   0.0000	
 44.9492	  -1.9495	   0.0000	
 44.2967	  -1.2936	   0.0000	
 44.6208	  -1.8304	   0.0000	
  0.0000	   0.0000	   0.0000	
  0.0000	   0.0000	   0.0000	
 41.3861	  -1.8434	   0.0000	
 42.0415	  -1.3136	   0.0000	
 42.3146	  -1.8836	   0.0000	
 42.4511	  -1.2507	   0.0000	
 42.2525	  -1.8623	   0.0000	
 42.3047	  -1.3793	   0.0000	
 41.8468	  -1.8565	   0.0000	
 41.6410	  -1.4388	   0.0000	
 42.3762	  -1.8418	   0.0000	
 42.2822	  -1.5831	   0.0000	
 41.7632	  -1.8460	   0.0000	
 41.6353	  -1.6769	   0.0000	
 42.4537	  -1.8903	   0.0000	
 42.3857	  -1.7325	   0.0000	
 -0.0000	  -0.0000	   0.0000	
  0.0000	  -0.0000	   0.0000	
 -0.0000	   0.0000	   0.0000	
 23.1146	  -0.7212	   0.0000	
 23.2919	  -2.0377	   0.0000	
 22.9217	  -3.4271	   0.0000	
 37.7821	  -4.2704	   0.0000	
 37.3360	  -4.1360	   0.0000	
 37.0455	  -4.1534	   0.0000	
 43.9479	  -1.4659	   0.0000	
 44.5807	  -1.5767	   0.0000	
 45.0344	  -1.6768	   0.0000	
 42.3137	  -1.8353	   0.0000	
 41.4990	  -1.7989	   0.0000	
 42.0271	  -1.7823	   0.0000	
 43.4519	  -0.7998	   0.0000	
 43.9722	  -2.1100	   0.0000	
 43.3984	  -0.7855	   0.0000	
 43.9808	  -2.1637	   0.0000	
 43.1808	  -0.7694	   0.0000	
 43.6420	  -2.2577	   0.0000	
 43.8210	  -0.8396	   0.0000	
 44.3688	  -2.2474	   0.0000	
 43.2863	  -1.0076	   0.0000	
 43.4982	  -2.0381	   0.0000	
 43.6672	  -1.1849	   0.0000	
 43.7650	  -1.8081	   0.0000	
 43.7470	  -1.2500	   0.0000	
 43.8908	  -1.5423	   0.0000	
 43.6044	  -1.3706	   0.0000	
 43.4860	  -1.3665	   0.0000	
 43.5347	  -0.9517	   0.0000	
 44.2195	  -1.8200	   0.0000	
 43.5353	  -0.9763	   0.0000	