# vtk DataFile Version 3.0 
Results 
ASCII 
DATASET UNSTRUCTURED_GRID 
POINTS 	    1451 float 
  0.0000	   0.6000	  0.0000	 
  0.0000	   1.2000	  0.0000	 
  0.0000	   1.8000	  0.0000	 
  0.0000	   2.4000	  0.0000	 
  0.0000	   3.0000	  0.0000	 
  0.0000	   3.6000	  0.0000	 
  0.0000	   4.2000	  0.0000	 
  0.0000	   4.8000	  0.0000	 
  0.0000	   5.4000	  0.0000	 
  0.0000	   6.0000	  0.0000	 
  0.0000	   6.6000	  0.0000	 
  0.0000	   7.2000	  0.0000	 
  0.0000	   7.8000	  0.0000	 
  0.0000	   8.4000	  0.0000	 
  0.0000	   9.0000	  0.0000	 
  0.0000	   9.6000	  0.0000	 
  0.0000	  10.2000	  0.0000	 
  0.0000	  10.8000	  0.0000	 
  0.0000	  11.4000	  0.0000	 
  0.2250	   0.8475	  0.0000	 
  0.2250	   1.4200	  0.0000	 
  0.2250	   1.9925	  0.0000	 
  0.2250	   2.5650	  0.0000	 
  0.2250	   3.1375	  0.0000	 
  0.2250	   3.7100	  0.0000	 
  0.2250	   4.2825	  0.0000	 
  0.2250	   4.8550	  0.0000	 
  0.2250	   5.4275	  0.0000	 
  0.2250	   6.0000	  0.0000	 
  0.2250	   6.5725	  0.0000	 
  0.2250	   7.1450	  0.0000	 
  0.2250	   7.7175	  0.0000	 
  0.2250	   8.2900	  0.0000	 
  0.2250	   8.8625	  0.0000	 
  0.2250	   9.4350	  0.0000	 
  0.2250	  10.0075	  0.0000	 
  0.2250	  10.5800	  0.0000	 
  0.2250	  11.1525	  0.0000	 
  0.4500	   1.0950	  0.0000	 
  0.4500	   1.6400	  0.0000	 
  0.4500	   2.1850	  0.0000	 
  0.4500	   2.7300	  0.0000	 
  0.4500	   3.2750	  0.0000	 
  0.4500	   3.8200	  0.0000	 
  0.4500	   4.3650	  0.0000	 
  0.4500	   4.9100	  0.0000	 
  0.4500	   5.4550	  0.0000	 
  0.4500	   6.0000	  0.0000	 
  0.4500	   6.5450	  0.0000	 
  0.4500	   7.0900	  0.0000	 
  0.4500	   7.6350	  0.0000	 
  0.4500	   8.1800	  0.0000	 
  0.4500	   8.7250	  0.0000	 
  0.4500	   9.2700	  0.0000	 
  0.4500	   9.8150	  0.0000	 
  0.4500	  10.3600	  0.0000	 
  0.4500	  10.9050	  0.0000	 
  0.6750	   1.3425	  0.0000	 
  0.6750	   1.8600	  0.0000	 
  0.6750	   2.3775	  0.0000	 
  0.6750	   2.8950	  0.0000	 
  0.6750	   3.4125	  0.0000	 
  0.6750	   3.9300	  0.0000	 
  0.6750	   4.4475	  0.0000	 
  0.6750	   4.9650	  0.0000	 
  0.6750	   5.4825	  0.0000	 
  0.6750	   6.0000	  0.0000	 
  0.6750	   6.5175	  0.0000	 
  0.6750	   7.0350	  0.0000	 
  0.6750	   7.5525	  0.0000	 
  0.6750	   8.0700	  0.0000	 
  0.6750	   8.5875	  0.0000	 
  0.6750	   9.1050	  0.0000	 
  0.6750	   9.6225	  0.0000	 
  0.6750	  10.1400	  0.0000	 
  0.6750	  10.6575	  0.0000	 
  0.9000	   1.5900	  0.0000	 
  0.9000	   2.0800	  0.0000	 
  0.9000	   2.5700	  0.0000	 
  0.9000	   3.0600	  0.0000	 
  0.9000	   3.5500	  0.0000	 
  0.9000	   4.0400	  0.0000	 
  0.9000	   4.5300	  0.0000	 
  0.9000	   5.0200	  0.0000	 
  0.9000	   5.5100	  0.0000	 
  0.9000	   6.0000	  0.0000	 
  0.9000	   6.4900	  0.0000	 
  0.9000	   6.9800	  0.0000	 
  0.9000	   7.4700	  0.0000	 
  0.9000	   7.9600	  0.0000	 
  0.9000	   8.4500	  0.0000	 
  0.9000	   8.9400	  0.0000	 
  0.9000	   9.4300	  0.0000	 
  0.9000	   9.9200	  0.0000	 
  0.9000	  10.4100	  0.0000	 
  1.1250	   1.8375	  0.0000	 
  1.1250	   2.3000	  0.0000	 
  1.1250	   2.7625	  0.0000	 
  1.1250	   3.2250	  0.0000	 
  1.1250	   3.6875	  0.0000	 
  1.1250	   4.1500	  0.0000	 
  1.1250	   4.6125	  0.0000	 
  1.1250	   5.0750	  0.0000	 
  1.1250	   5.5375	  0.0000	 
  1.1250	   6.0000	  0.0000	 
  1.1250	   6.4625	  0.0000	 
  1.1250	   6.9250	  0.0000	 
  1.1250	   7.3875	  0.0000	 
  1.1250	   7.8500	  0.0000	 
  1.1250	   8.3125	  0.0000	 
  1.1250	   8.7750	  0.0000	 
  1.1250	   9.2375	  0.0000	 
  1.1250	   9.7000	  0.0000	 
  1.1250	  10.1625	  0.0000	 
  1.3500	   2.0850	  0.0000	 
  1.3500	   2.5200	  0.0000	 
  1.3500	   2.9550	  0.0000	 
  1.3500	   3.3900	  0.0000	 
  1.3500	   3.8250	  0.0000	 
  1.3500	   4.2600	  0.0000	 
  1.3500	   4.6950	  0.0000	 
  1.3500	   5.1300	  0.0000	 
  1.3500	   5.5650	  0.0000	 
  1.3500	   6.0000	  0.0000	 
  1.3500	   6.4350	  0.0000	 
  1.3500	   6.8700	  0.0000	 
  1.3500	   7.3050	  0.0000	 
  1.3500	   7.7400	  0.0000	 
  1.3500	   8.1750	  0.0000	 
  1.3500	   8.6100	  0.0000	 
  1.3500	   9.0450	  0.0000	 
  1.3500	   9.4800	  0.0000	 
  1.3500	   9.9150	  0.0000	 
  1.5750	   2.3325	  0.0000	 
  1.5750	   2.7400	  0.0000	 
  1.5750	   3.1475	  0.0000	 
  1.5750	   3.5550	  0.0000	 
  1.5750	   3.9625	  0.0000	 
  1.5750	   4.3700	  0.0000	 
  1.5750	   4.7775	  0.0000	 
  1.5750	   5.1850	  0.0000	 
  1.5750	   5.5925	  0.0000	 
  1.5750	   6.0000	  0.0000	 
  1.5750	   6.4075	  0.0000	 
  1.5750	   6.8150	  0.0000	 
  1.5750	   7.2225	  0.0000	 
  1.5750	   7.6300	  0.0000	 
  1.5750	   8.0375	  0.0000	 
  1.5750	   8.4450	  0.0000	 
  1.5750	   8.8525	  0.0000	 
  1.5750	   9.2600	  0.0000	 
  1.5750	   9.6675	  0.0000	 
  1.8000	   2.5800	  0.0000	 
  1.8000	   2.9600	  0.0000	 
  1.8000	   3.3400	  0.0000	 
  1.8000	   3.7200	  0.0000	 
  1.8000	   4.1000	  0.0000	 
  1.8000	   4.4800	  0.0000	 
  1.8000	   4.8600	  0.0000	 
  1.8000	   5.2400	  0.0000	 
  1.8000	   5.6200	  0.0000	 
  1.8000	   6.0000	  0.0000	 
  1.8000	   6.3800	  0.0000	 
  1.8000	   6.7600	  0.0000	 
  1.8000	   7.1400	  0.0000	 
  1.8000	   7.5200	  0.0000	 
  1.8000	   7.9000	  0.0000	 
  1.8000	   8.2800	  0.0000	 
  1.8000	   8.6600	  0.0000	 
  1.8000	   9.0400	  0.0000	 
  1.8000	   9.4200	  0.0000	 
  2.0250	   2.8275	  0.0000	 
  2.0250	   3.1800	  0.0000	 
  2.0250	   3.5325	  0.0000	 
  2.0250	   3.8850	  0.0000	 
  2.0250	   4.2375	  0.0000	 
  2.0250	   4.5900	  0.0000	 
  2.0250	   4.9425	  0.0000	 
  2.0250	   5.2950	  0.0000	 
  2.0250	   5.6475	  0.0000	 
  2.0250	   6.0000	  0.0000	 
  2.0250	   6.3525	  0.0000	 
  2.0250	   6.7050	  0.0000	 
  2.0250	   7.0575	  0.0000	 
  2.0250	   7.4100	  0.0000	 
  2.0250	   7.7625	  0.0000	 
  2.0250	   8.1150	  0.0000	 
  2.0250	   8.4675	  0.0000	 
  2.0250	   8.8200	  0.0000	 
  2.0250	   9.1725	  0.0000	 
  2.2500	   3.0750	  0.0000	 
  2.2500	   3.4000	  0.0000	 
  2.2500	   3.7250	  0.0000	 
  2.2500	   4.0500	  0.0000	 
  2.2500	   4.3750	  0.0000	 
  2.2500	   4.7000	  0.0000	 
  2.2500	   5.0250	  0.0000	 
  2.2500	   5.3500	  0.0000	 
  2.2500	   5.6750	  0.0000	 
  2.2500	   6.0000	  0.0000	 
  2.2500	   6.3250	  0.0000	 
  2.2500	   6.6500	  0.0000	 
  2.2500	   6.9750	  0.0000	 
  2.2500	   7.3000	  0.0000	 
  2.2500	   7.6250	  0.0000	 
  2.2500	   7.9500	  0.0000	 
  2.2500	   8.2750	  0.0000	 
  2.2500	   8.6000	  0.0000	 
  2.2500	   8.9250	  0.0000	 
  2.4750	   3.3225	  0.0000	 
  2.4750	   3.6200	  0.0000	 
  2.4750	   3.9175	  0.0000	 
  2.4750	   4.2150	  0.0000	 
  2.4750	   4.5125	  0.0000	 
  2.4750	   4.8100	  0.0000	 
  2.4750	   5.1075	  0.0000	 
  2.4750	   5.4050	  0.0000	 
  2.4750	   5.7025	  0.0000	 
  2.4750	   6.0000	  0.0000	 
  2.4750	   6.2975	  0.0000	 
  2.4750	   6.5950	  0.0000	 
  2.4750	   6.8925	  0.0000	 
  2.4750	   7.1900	  0.0000	 
  2.4750	   7.4875	  0.0000	 
  2.4750	   7.7850	  0.0000	 
  2.4750	   8.0825	  0.0000	 
  2.4750	   8.3800	  0.0000	 
  2.4750	   8.6775	  0.0000	 
  2.7000	   3.5700	  0.0000	 
  2.7000	   3.8400	  0.0000	 
  2.7000	   4.1100	  0.0000	 
  2.7000	   4.3800	  0.0000	 
  2.7000	   4.6500	  0.0000	 
  2.7000	   4.9200	  0.0000	 
  2.7000	   5.1900	  0.0000	 
  2.7000	   5.4600	  0.0000	 
  2.7000	   5.7300	  0.0000	 
  2.7000	   6.0000	  0.0000	 
  2.7000	   6.2700	  0.0000	 
  2.7000	   6.5400	  0.0000	 
  2.7000	   6.8100	  0.0000	 
  2.7000	   7.0800	  0.0000	 
  2.7000	   7.3500	  0.0000	 
  2.7000	   7.6200	  0.0000	 
  2.7000	   7.8900	  0.0000	 
  2.7000	   8.1600	  0.0000	 
  2.7000	   8.4300	  0.0000	 
  2.9250	   3.8175	  0.0000	 
  2.9250	   4.0600	  0.0000	 
  2.9250	   4.3025	  0.0000	 
  2.9250	   4.5450	  0.0000	 
  2.9250	   4.7875	  0.0000	 
  2.9250	   5.0300	  0.0000	 
  2.9250	   5.2725	  0.0000	 
  2.9250	   5.5150	  0.0000	 
  2.9250	   5.7575	  0.0000	 
  2.9250	   6.0000	  0.0000	 
  2.9250	   6.2425	  0.0000	 
  2.9250	   6.4850	  0.0000	 
  2.9250	   6.7275	  0.0000	 
  2.9250	   6.9700	  0.0000	 
  2.9250	   7.2125	  0.0000	 
  2.9250	   7.4550	  0.0000	 
  2.9250	   7.6975	  0.0000	 
  2.9250	   7.9400	  0.0000	 
  2.9250	   8.1825	  0.0000	 
  3.1500	   4.0650	  0.0000	 
  3.1500	   4.2800	  0.0000	 
  3.1500	   4.4950	  0.0000	 
  3.1500	   4.7100	  0.0000	 
  3.1500	   4.9250	  0.0000	 
  3.1500	   5.1400	  0.0000	 
  3.1500	   5.3550	  0.0000	 
  3.1500	   5.5700	  0.0000	 
  3.1500	   5.7850	  0.0000	 
  3.1500	   6.0000	  0.0000	 
  3.1500	   6.2150	  0.0000	 
  3.1500	   6.4300	  0.0000	 
  3.1500	   6.6450	  0.0000	 
  3.1500	   6.8600	  0.0000	 
  3.1500	   7.0750	  0.0000	 
  3.1500	   7.2900	  0.0000	 
  3.1500	   7.5050	  0.0000	 
  3.1500	   7.7200	  0.0000	 
  3.1500	   7.9350	  0.0000	 
  3.3750	   4.3125	  0.0000	 
  3.3750	   4.5000	  0.0000	 
  3.3750	   4.6875	  0.0000	 
  3.3750	   4.8750	  0.0000	 
  3.3750	   5.0625	  0.0000	 
  3.3750	   5.2500	  0.0000	 
  3.3750	   5.4375	  0.0000	 
  3.3750	   5.6250	  0.0000	 
  3.3750	   5.8125	  0.0000	 
  3.3750	   6.0000	  0.0000	 
  3.3750	   6.1875	  0.0000	 
  3.3750	   6.3750	  0.0000	 
  3.3750	   6.5625	  0.0000	 
  3.3750	   6.7500	  0.0000	 
  3.3750	   6.9375	  0.0000	 
  3.3750	   7.1250	  0.0000	 
  3.3750	   7.3125	  0.0000	 
  3.3750	   7.5000	  0.0000	 
  3.3750	   7.6875	  0.0000	 
  3.6000	   4.5600	  0.0000	 
  3.6000	   4.7200	  0.0000	 
  3.6000	   4.8800	  0.0000	 
  3.6000	   5.0400	  0.0000	 
  3.6000	   5.2000	  0.0000	 
  3.6000	   5.3600	  0.0000	 
  3.6000	   5.5200	  0.0000	 
  3.6000	   5.6800	  0.0000	 
  3.6000	   5.8400	  0.0000	 
  3.6000	   6.0000	  0.0000	 
  3.6000	   6.1600	  0.0000	 
  3.6000	   6.3200	  0.0000	 
  3.6000	   6.4800	  0.0000	 
  3.6000	   6.6400	  0.0000	 
  3.6000	   6.8000	  0.0000	 
  3.6000	   6.9600	  0.0000	 
  3.6000	   7.1200	  0.0000	 
  3.6000	   7.2800	  0.0000	 
  3.6000	   7.4400	  0.0000	 
  3.8250	   4.8075	  0.0000	 
  3.8250	   4.9400	  0.0000	 
  3.8250	   5.0725	  0.0000	 
  3.8250	   5.2050	  0.0000	 
  3.8250	   5.3375	  0.0000	 
  3.8250	   5.4700	  0.0000	 
  3.8250	   5.6025	  0.0000	 
[...]
POINT_DATA 	    1451 
VECTORS U float 
 50.0000	   0.0000	   0.0000	
 50.0000	   0.0000	   0.0000	
 50.0000	   0.0000	   0.0000	
 50.0000	   0.0000	   0.0000	
 50.0000	  -0.0000	   0.0000	
 50.0000	  -0.0000	   0.0000	
 50.0000	   0.0000	   0.0000	
 50.0000	  -0.0000	   0.0000	
 50.0000	  -0.0000	   0.0000	
 50.0000	   0.0000	   0.0000	
 50.0000	  -0.0000	   0.0000	
 50.0000	  -0.0000	   0.0000	
 50.0000	   0.0000	   0.0000	
 50.0000	   0.0000	   0.0000	
 50.0000	  -0.0000	   0.0000	
 50.0000	  -0.0000	   0.0000	
 50.0000	   0.0000	   0.0000	
 50.0000	   0.0000	   0.0000	
 50.0000	  -0.0000	   0.0000	
 49.2333	   5.8844	   0.0000	
 50.2307	   5.1856	   0.0000	
 50.1975	   8.1968	   0.0000	
 49.9144	  16.3366	   0.0000	
 49.9530	   9.4766	   0.0000	
 49.9282	  14.6305	   0.0000	
 49.6338	  16.6733	   0.0000	
 49.4038	  20.7739	   0.0000	
 49.7114	  23.9159	   0.0000	
 49.7794	  25.6812	   0.0000	
 49.9507	  26.0294	   0.0000	
 50.5032	  24.8104	   0.0000	
 50.1572	  21.9565	   0.0000	
 50.0334	  21.0702	   0.0000	
 50.2919	  20.8984	   0.0000	
 50.0341	  13.2893	   0.0000	
 49.9116	  15.6941	   0.0000	
 49.3955	  13.2184	   0.0000	
 50.4116	  13.8936	   0.0000	
 50.9261	  10.7926	   0.0000	
 47.1898	  14.2850	   0.0000	
 43.5766	  28.1040	   0.0000	
 55.5042	  21.9617	   0.0000	
 46.0751	  26.9141	   0.0000	
 48.4771	  32.8856	   0.0000	
 46.6275	  41.4022	   0.0000	
 47.2274	  49.2539	   0.0000	
 48.4376	  53.5928	   0.0000	
 49.4716	  55.1586	   0.0000	
 49.9981	  54.9166	   0.0000	
 51.2355	  55.1251	   0.0000	
 52.9355	  49.4698	   0.0000	
 50.3888	  41.4689	   0.0000	
 49.9717	  39.9283	   0.0000	
 55.5045	  38.1053	   0.0000	
 48.1175	  28.1456	   0.0000	
 52.5627	  28.2371	   0.0000	
 49.8343	  29.1620	   0.0000	
 47.8080	  16.6538	   0.0000	
 39.5755	  36.6733	   0.0000	
 51.0933	  33.6136	   0.0000	
 50.0390	  39.9487	   0.0000	
 43.7857	  45.0120	   0.0000	
 43.9093	  55.5722	   0.0000	
 43.3303	  64.2727	   0.0000	
 45.3821	  68.7313	   0.0000	
 47.5313	  71.9294	   0.0000	
 47.6237	  75.5425	   0.0000	
 50.3322	  80.8271	   0.0000	
 51.1468	  78.9712	   0.0000	
 55.0660	  80.1779	   0.0000	
 55.7817	  72.5322	   0.0000	
 52.0991	  60.4741	   0.0000	
 53.3515	  55.8211	   0.0000	
 55.9577	  55.9793	   0.0000	
 51.4099	  45.4387	   0.0000	
 46.7084	  42.8310	   0.0000	
 28.9981	  40.4129	   0.0000	
 44.2908	  43.0773	   0.0000	
 50.4789	  48.8291	   0.0000	
 44.3818	  59.3221	   0.0000	
 39.2991	  57.8252	   0.0000	
 40.4538	  64.9531	   0.0000	
 41.4078	  68.3427	   0.0000	
 44.2575	  71.9793	   0.0000	
 46.3723	  74.1600	   0.0000	
 47.4964	  74.6239	   0.0000	
 47.3940	  74.4726	   0.0000	
 51.4583	  81.8729	   0.0000	
 53.8363	  80.2831	   0.0000	
 58.6484	  82.6320	   0.0000	
 58.9048	  75.6079	   0.0000	
 54.5701	  73.7000	   0.0000	
 56.0501	  73.2506	   0.0000	
 54.7779	  73.2160	   0.0000	
 56.1278	  60.3306	   0.0000	
 36.5849	  49.2744	   0.0000	
 45.1085	  58.9223	   0.0000	
 41.5775	  69.1212	   0.0000	
 46.7112	  68.6378	   0.0000	
 37.2991	  65.6633	   0.0000	
 39.6418	  66.4465	   0.0000	
 40.4809	  68.3739	   0.0000	
 43.6879	  69.3864	   0.0000	
 45.8521	  70.6673	   0.0000	
 46.7847	  72.0572	   0.0000	
 48.0438	  73.4264	   0.0000	
 47.2208	  71.7363	   0.0000	
 53.7970	  80.3944	   0.0000	
 56.5454	  79.1241	   0.0000	
 61.3556	  82.4546	   0.0000	
 52.2235	  84.4231	   0.0000	
 54.5432	  88.5035	   0.0000	
 55.4565	  90.6111	   0.0000	
 63.3375	  94.8972	   0.0000	
 35.2298	  65.7957	   0.0000	
 41.3452	  78.5799	   0.0000	
 44.2688	  74.6789	   0.0000	
 45.4790	  77.5707	   0.0000	
 37.8459	  71.2152	   0.0000	
 39.2232	  72.6560	   0.0000	
 40.8870	  71.7537	   0.0000	
 43.2348	  73.2544	   0.0000	
 45.5312	  74.6069	   0.0000	
 45.3333	  77.1901	   0.0000	
 46.9493	  80.4462	   0.0000	
 48.3279	  82.1398	   0.0000	
 48.0751	  80.0179	   0.0000	
 56.3416	  88.7411	   0.0000	
 58.3474	  87.2641	   0.0000	
 53.6300	  96.5294	   0.0000	
 50.8417	  96.6543	   0.0000	
 53.3333	 103.9178	   0.0000	
 49.7294	 112.1041	   0.0000	
 32.6889	  66.2871	   0.0000	
 45.3097	  70.2423	   0.0000	
 43.4602	  69.8550	   0.0000	
 45.5083	  71.3471	   0.0000	
 37.4982	  68.1186	   0.0000	
 40.3912	  67.0940	   0.0000	
 40.2012	  68.4669	   0.0000	
 42.7001	  70.6568	   0.0000	
 43.8610	  73.8818	   0.0000	
 44.7780	  75.2949	   0.0000	
 45.3934	  75.8811	   0.0000	
 46.9635	  79.1381	   0.0000	
 49.6066	  80.7670	   0.0000	
 49.7239	  77.2346	   0.0000	
 58.6715	  85.0818	   0.0000	
 51.3686	  87.2694	   0.0000	
 51.4972	  91.3811	   0.0000	
 48.1349	  92.8997	   0.0000	
 46.6704	 104.5854	   0.0000	
 38.4024	  60.6831	   0.0000	
 44.9917	  66.9680	   0.0000	
 43.0601	  66.0306	   0.0000	
 43.6167	  71.0042	   0.0000	
 39.0225	  65.7493	   0.0000	
 39.3115	  67.7934	   0.0000	
 39.4577	  69.5050	   0.0000	
 40.9554	  72.6844	   0.0000	
 43.0510	  74.8100	   0.0000	
 43.6684	  76.6657	   0.0000	
 45.1497	  78.5026	   0.0000	
 44.7825	  78.4101	   0.0000	
 48.0492	  81.9863	   0.0000	
 52.2998	  82.3064	   0.0000	
 51.5018	  77.2726	   0.0000	
 53.3629	  88.6501	   0.0000	
 49.7872	  86.4421	   0.0000	
 49.4364	  88.9985	   0.0000	
 40.4664	  95.8096	   0.0000	
 39.2423	  58.7841	   0.0000	
 44.1545	  64.7317	   0.0000	
 40.0693	  66.5510	   0.0000	
 44.6420	  68.2938	   0.0000	
 37.6705	  66.5838	   0.0000	
 38.4366	  68.6108	   0.0000	
 37.6998	  71.0891	   0.0000	
 39.9595	  73.4711	   0.0000	
 41.7999	  75.7686	   0.0000	
 42.1023	  78.2927	   0.0000	
 44.1121	  80.7902	   0.0000	
 45.0531	  82.1269	   0.0000	
 45.2495	  81.5171	   0.0000	
 50.9703	  83.8400	   0.0000	
 55.5128	  82.9864	   0.0000	
 45.6487	  82.0383	   0.0000	
 52.7926	  89.9861	   0.0000	
 49.3221	  87.3560	   0.0000	
 41.8096	  93.4634	   0.0000	
 38.6318	  59.0022	   0.0000	
 40.5497	  66.2959	   0.0000	
 41.4168	  64.8861	   0.0000	
 42.1343	  69.3471	   0.0000	
 36.4615	  68.1460	   0.0000	
 36.6686	  70.6235	   0.0000	
 36.5312	  72.5350	   0.0000	
 38.7151	  74.9083	   0.0000	
 40.2968	  77.3888	   0.0000	
 40.8727	  79.1439	   0.0000	
 42.6128	  80.2921	   0.0000	
 43.8322	  82.1490	   0.0000	
 45.8403	  83.3791	   0.0000	
 48.0534	  80.8827	   0.0000	
 54.0306	  82.5202	   0.0000	
 51.5325	  85.7338	   0.0000	
 42.8245	  84.0210	   0.0000	
 53.4028	  90.5719	   0.0000	
 44.1931	  92.0098	   0.0000	
 35.3592	  61.2560	   0.0000	
 42.7486	  64.0547	   0.0000	
 38.2291	  64.2045	   0.0000	
 40.1218	  68.6614	   0.0000	
 34.5474	  68.1831	   0.0000	
 35.2025	  70.8193	   0.0000	
 35.6265	  72.0319	   0.0000	
 37.2565	  74.0611	   0.0000	
 38.7940	  76.5062	   0.0000	
 39.3963	  78.7236	   0.0000	
 42.3260	  80.6226	   0.0000	
 42.2437	  80.5669	   0.0000	
 44.7774	  82.3275	   0.0000	
 49.3811	  81.5833	   0.0000	
 50.0792	  79.3255	   0.0000	
 50.4390	  85.4532	   0.0000	
 48.5007	  88.4989	   0.0000	
 41.9440	  87.1329	   0.0000	
 50.1014	  94.2440	   0.0000	
 39.9043	  60.6907	   0.0000	
 39.0673	  64.6802	   0.0000	
 35.8841	  65.8871	   0.0000	
 36.7326	  70.8233	   0.0000	
 32.7304	  71.2153	   0.0000	
 34.4813	  72.9589	   0.0000	
 34.4935	  74.4735	   0.0000	
 35.6097	  76.9435	   0.0000	
 37.0173	  79.5051	   0.0000	
 36.1283	  83.5332	   0.0000	
 40.5911	  87.3480	   0.0000	
 42.5755	  88.4363	   0.0000	
 43.0559	  87.4424	   0.0000	
 48.2199	  86.9837	   0.0000	
 51.4531	  86.9679	   0.0000	
 45.0216	  89.5071	   0.0000	
 46.3052	  96.2226	   0.0000	
 50.1765	  94.2702	   0.0000	
 37.5148	  93.3897	   0.0000	
 36.3454	  57.5510	   0.0000	
 34.5864	  59.8470	   0.0000	
 31.9430	  62.3247	   0.0000	
 33.2930	  68.3385	   0.0000	
 31.5708	  69.5385	   0.0000	
 33.3553	  71.9723	   0.0000	
 31.9400	  74.7736	   0.0000	
 33.6034	  78.1519	   0.0000	
 33.1939	  82.7345	   0.0000	
 37.2047	  81.6530	   0.0000	
 37.7439	  79.9169	   0.0000	
 41.1813	  82.6344	   0.0000	
 44.2829	  83.6691	   0.0000	
 46.8959	  80.9612	   0.0000	
 48.7568	  82.7596	   0.0000	
 46.6298	  88.0509	   0.0000	
 39.4123	  91.6994	   0.0000	
 50.9483	  88.5665	   0.0000	
 52.8514	  81.0445	   0.0000	
 31.5056	  60.8636	   0.0000	
 28.9334	  63.7911	   0.0000	
 26.8384	  67.2335	   0.0000	
 31.2287	  71.3028	   0.0000	
 29.4119	  72.3752	   0.0000	
 29.3486	  76.8770	   0.0000	
 29.4391	  79.6815	   0.0000	
 28.7553	  83.4708	   0.0000	
 34.8462	  82.8184	   0.0000	
 35.6523	  82.9005	   0.0000	
 40.0460	  85.2756	   0.0000	
 37.2024	  82.8969	   0.0000	
 42.7065	  85.3391	   0.0000	
 48.1113	  84.0287	   0.0000	
 43.5502	  86.5302	   0.0000	
 42.6686	  94.2115	   0.0000	
 41.1145	  99.4170	   0.0000	
 46.7074	  91.1806	   0.0000	
 58.6716	  81.5273	   0.0000	
 25.7852	  58.5470	   0.0000	
 22.0156	  64.0549	   0.0000	
 27.0053	  66.8487	   0.0000	
 28.4962	  70.6992	   0.0000	
 24.0955	  73.3622	   0.0000	
 26.6332	  77.0003	   0.0000	
 25.6948	  79.3583	   0.0000	
 32.4111	  77.2117	   0.0000	
 35.7715	  75.6286	   0.0000	
 27.8530	  82.2255	   0.0000	
 35.9459	  89.2661	   0.0000	
 39.7728	  92.6667	   0.0000	
 39.8613	  90.6585	   0.0000	
 44.3717	  92.2472	   0.0000	
 43.2284	  98.2562	   0.0000	
 34.0531	 105.0220	   0.0000	
 39.2635	 105.5105	   0.0000	
 54.4756	  93.9190	   0.0000	
 55.0381	  82.5514	   0.0000	
 20.6650	  53.0498	   0.0000	
 23.5212	  55.2640	   0.0000	
 10.4467	  66.0673	   0.0000	
 18.6555	  81.2199	   0.0000	
 21.1176	  87.0019	   0.0000	
 23.3493	  90.8477	   0.0000	
 31.6127	  89.9773	   0.0000	
 35.4583	  88.8518	   0.0000	
 25.4004	  96.2594	   0.0000	
 31.4029	  94.0399	   0.0000	
 26.9060	  91.1063	   0.0000	
 32.1444	  98.4568	   0.0000	
 42.6977	 102.9381	   0.0000	
 37.6368	 101.4278	   0.0000	
 36.3173	 108.1940	   0.0000	
 34.0728	 112.2517	   0.0000	
 49.1619	 100.4898	   0.0000	
 44.7549	  87.8179	   0.0000	
 65.9208	  73.9612	   0.0000	
  1.3142	  44.8308	   0.0000	
 -8.0804	  53.0066	   0.0000	
  7.8710	  62.1257	   0.0000	
 14.1702	  67.5341	   0.0000	
 17.1828	  70.9046	   0.0000	
 29.8708	  73.0684	   0.0000	
 34.2775	  73.2928	   0.0000	
 19.6473	  79.5785	   0.0000	
 29.0544	  79.7728	   0.0000	
 21.3063	  85.2290	   0.0000	
 31.2887	  92.5262	   0.0000	
 17.5318	  92.1404	   0.0000	
 28.1088	 100.7000	   0.0000	
 42.9101	 105.5042	   0.0000	
 25.4896	 114.7006	   0.0000	
 34.1973	 122.2418	   0.0000	
 32.0512	 117.8153	   0.0000	
 65.6889	 110.6830	   0.0000	
 74.0863	  90.9689	   0.0000	
 -9.0000	  64.6955	   0.0000	
  2.4386	  72.1153	   0.0000	
  7.8400	  77.5335	   0.0000	
 17.0731	  81.0670	   0.0000	
 27.0443	  85.7631	   0.0000	
 28.7081	  86.6003	   0.0000	
 11.0549	  95.5260	   0.0000	
 21.6226	  99.7479	   0.0000	
 16.0783	 107.0286	   0.0000	
 12.7637	 112.0107	   0.0000	
 14.8463	 116.4426	   0.0000	
 21.2107	 124.5976	   0.0000	
  3.3713	 129.6626	   0.0000	
 20.3602	 136.2089	   0.0000	
 15.2736	 149.4292	   0.0000	
  9.4411	 161.0163	   0.0000	
 25.1852	 156.0091	   0.0000	
 52.3867	 140.7973	   0.0000	
 66.1501	 115.9853	   0.0000	
 -1.7970	  26.7051	   0.0000	
  3.7658	  31.2272	   0.0000	
  9.8208	  35.9438	   0.0000	
 22.4668	  42.5294	   0.0000	
  0.4607	  51.1167	   0.0000	
  0.4328	  51.8113	   0.0000	
  8.5325	  56.0900	   0.0000	
  0.3579	  59.9326	   0.0000	
  6.1128	  63.0754	   0.0000	
  0.4402	  65.9399	   0.0000	
  5.7925	  68.8138	   0.0000	
  0.4679	  71.7364	   0.0000	
  6.6682	  75.0072	   0.0000	
 -0.8407	  77.6511	   0.0000	
 -0.0006	  77.1320	   0.0000	
 -3.7082	  81.7885	   0.0000	
 -0.1168	  80.9451	   0.0000	
 21.4411	  77.0845	   0.0000	
 53.3332	  68.9281	   0.0000	
 -0.0000	  -0.0000	   0.0000	
  0.0000	   0.0000	   0.0000	
 -0.0000	   0.0000	   0.0000	
 -0.0000	   0.0000	   0.0000	
  0.0000	  -0.0000	   0.0000	
 -0.0000	   0.0000	   0.0000	
  0.0000	   0.0000	   0.0000	
  0.0000	  -0.0000	   0.0000	
 -0.0000	  -0.0000	   0.0000	
  0.0000	   0.0000	   0.0000	
  0.0000	   0.0000	   0.0000	
  0.0000	  -0.0000	   0.0000	
 -0.0000	   0.0000	   0.0000	
 -0.0000	   0.0000	   0.0000	
 -0.0000	  -0.0000	   0.0000	
 -0.0000	  -0.0000	   0.0000	
  0.0000	  -0.0000	   0.0000	
 -0.0000	  -0.0000	   0.0000	
  0.0000	   0.0000	   0.0000	
 50.0000	  50.0000	   0.0000	
 50.0000	  -0.0000	   0.0000	
 68.1712	  50.1290	   0.0000	
 49.9860	  15.2436	   0.0000	
 85.5605	  50.3266	   0.0000	
 48.5612	  30.3404	   0.0000	
 83.6210	  54.8070	   0.0000	
 49.1872	  45.8382	   0.0000	
 85.1560	  57.9011	   0.0000	
 47.9256	  60.8088	   0.0000	
 60.3976	  76.5802	   0.0000	
 45.9462	  75.6955	   0.0000	
 50.9884	  80.7635	   0.0000	
 80.1847	 105.1878	   0.0000	
 48.1728	  78.4576	   0.0000	
 64.8915	  91.8377	   0.0000	
 44.1163	  76.6667	   0.0000	
 59.6605	  85.4041	   0.0000	
 48.9471	  70.0634	   0.0000	
 52.9121	  78.9548	   0.0000	
 47.8773	  67.7853	   0.0000	
 54.0080	  77.8479	   0.0000	
 44.8541	  66.2477	   0.0000	
 56.8255	  77.2570	   0.0000	
 39.3236	  65.5866	   0.0000	
 64.8668	  79.1529	   0.0000	
 42.3430	  59.8921	   0.0000	
 48.7907	  68.6675	   0.0000	
 35.7270	  57.5068	   0.0000	
 62.9683	  71.5979	   0.0000	
 26.9794	  55.5106	   0.0000	
 68.9952	  69.8861	   0.0000	
 17.7923	  52.2602	   0.0000	
 68.1078	  63.7585	   0.0000	
 21.5890	  39.5473	   0.0000	
 78.9522	  62.1670	   0.0000	
-25.9705	  54.1809	   0.0000	
117.5271	  75.0152	   0.0000	
 -7.5097	  21.1171	   0.0000	
 98.9894	  44.4689	   0.0000	
 -0.0000	   0.0000	   0.0000	
 -0.0000	  -0.0000	   0.0000	
 50.2034	  50.0000	   0.0000	
 83.4195	 149.3925	   0.0000	
 50.4267	  48.9389	   0.0000	
 50.3987	 133.6514	   0.0000	
 48.1819	  48.2796	   0.0000	
 36.7098	 119.2684	   0.0000	
 47.2100	  46.9841	   0.0000	
 28.8632	 107.4351	   0.0000	
 44.8314	  46.5254	   0.0000	
 28.8982	 101.7453	   0.0000	
 42.9053	  45.8124	   0.0000	
 29.0215	  97.3146	   0.0000	
 43.6481	  44.8358	   0.0000	
 28.4688	  93.5380	   0.0000	
 44.4834	  43.5367	   0.0000	
 29.6570	  90.2522	   0.0000	
 43.6381	  42.8406	   0.0000	
 32.1636	  87.2905	   0.0000	
 40.0824	  43.2184	   0.0000	
 35.6757	  84.1115	   0.0000	
 40.0981	  41.8454	   0.0000	
 40.4370	  81.4203	   0.0000	
 47.1116	  37.6110	   0.0000	
 29.3134	  72.5874	   0.0000	
 41.8211	  37.8474	   0.0000	
 40.8023	  71.9019	   0.0000	
 40.5211	  35.1066	   0.0000	
 43.7475	  66.6086	   0.0000	
 37.9632	  31.4228	   0.0000	
 44.6113	  60.8424	   0.0000	
 41.7470	  25.4362	   0.0000	
 50.2566	  53.1502	   0.0000	
 19.0306	  25.6938	   0.0000	
 72.5496	  49.2677	   0.0000	
 17.6318	  17.0180	   0.0000	
 68.9328	  35.1244	   0.0000	
 33.8190	   2.0550	   0.0000	
 58.5171	  19.0276	   0.0000	
 22.8537	   0.6087	   0.0000	
  0.3538	  -1.3985	   0.0000	
 -0.0000	   0.0000	   0.0000	
 -0.0000	  -0.0000	   0.0000	
 60.4776	  50.0000	   0.0000	
-40.3125	  70.0316	   0.0000	
 54.6413	  50.8556	   0.0000	
 -9.6210	  71.1152	   0.0000	
 51.6878	  51.2231	   0.0000	
  4.4851	  70.7894	   0.0000	
 48.5886	  51.8228	   0.0000	
 11.6212	  70.0044	   0.0000	
 48.3171	  52.0333	   0.0000	
 13.6506	  68.5601	   0.0000	
 49.2036	  52.2745	   0.0000	
 14.8099	  67.2144	   0.0000	
 48.4567	  52.8508	   0.0000	
 15.8926	  65.3248	   0.0000	
 47.5448	  52.7105	   0.0000	
 18.0185	  63.2711	   0.0000	
 47.2957	  53.2887	   0.0000	
 19.0474	  61.3032	   0.0000	
 46.2587	  53.8353	   0.0000	
 21.9384	  60.1607	   0.0000	
 53.0802	  53.3372	   0.0000	
 15.7402	  58.1143	   0.0000	
 52.8671	  53.4738	   0.0000	
 17.9973	  54.7569	   0.0000	
 55.8890	  53.2619	   0.0000	
 19.9944	  51.4335	   0.0000	
 57.7313	  53.4965	   0.0000	
 12.1678	  47.1073	   0.0000	
 61.6711	  53.1727	   0.0000	
 17.1005	  43.7993	   0.0000	
 60.3988	  49.7669	   0.0000	
 23.7738	  37.0757	   0.0000	
 58.0419	  48.0032	   0.0000	
 26.5466	  32.4620	   0.0000	
 62.1350	  47.5754	   0.0000	
 28.4049	  28.5883	   0.0000	
 58.3116	  45.9581	   0.0000	
  4.2643	  28.3334	   0.0000	
 36.7658	  44.7109	   0.0000	
  3.9770	  33.3478	   0.0000	
 26.7239	  41.5284	   0.0000	
 -0.8039	  35.6263	   0.0000	
 43.8085	  50.0000	   0.0000	
 11.1795	  55.8800	   0.0000	
 47.3121	  51.4633	   0.0000	
 -2.0772	  60.7706	   0.0000	
 46.5564	  52.0007	   0.0000	
  1.2841	  61.3425	   0.0000	
 44.8495	  52.1295	   0.0000	
  5.3816	  60.6899	   0.0000	
 44.3067	  52.5401	   0.0000	
  6.7777	  60.5284	   0.0000	
 44.2931	  53.1064	   0.0000	
  7.8580	  60.3788	   0.0000	
 42.7499	  53.2895	   0.0000	
 10.2859	  59.6064	   0.0000	
 43.4510	  54.2215	   0.0000	
  8.7414	  60.4897	   0.0000	
 44.2436	  54.7325	   0.0000	
 11.6157	  59.5314	   0.0000	
 43.8468	  55.5596	   0.0000	
 13.4650	  59.1517	   0.0000	
 44.6862	  56.9542	   0.0000	
 14.5348	  59.3477	   0.0000	
 46.2530	  58.1404	   0.0000	
 10.9567	  59.5555	   0.0000	
 48.7751	  60.1688	   0.0000	
  5.1481	  61.3006	   0.0000	
 48.7573	  62.1325	   0.0000	
 11.1647	  61.1355	   0.0000	
 49.7344	  63.6046	   0.0000	
  9.8324	  60.9535	   0.0000	
 57.3550	  68.4832	   0.0000	
  7.0976	  62.0906	   0.0000	
 53.6030	  70.1960	   0.0000	
 11.3264	  60.5448	   0.0000	
 51.2956	  72.5469	   0.0000	
 15.6312	  58.5980	   0.0000	
 51.4624	  75.0995	   0.0000	
 19.9485	  56.1589	   0.0000	
 44.9564	  78.2008	   0.0000	
 19.5516	  61.5560	   0.0000	
 26.0998	  76.9972	   0.0000	
 19.8209	  65.6462	   0.0000	
 47.3096	  50.0000	   0.0000	
 -0.3336	  45.8919	   0.0000	
 46.5194	  49.6082	   0.0000	
  2.9281	  45.2541	   0.0000	
 45.3727	  49.3057	   0.0000	
  5.5045	  44.6682	   0.0000	
 43.7252	  48.7615	   0.0000	
  8.1585	  44.0855	   0.0000	
 43.8256	  49.1222	   0.0000	
  6.5876	  45.9476	   0.0000	
 43.8714	  49.5549	   0.0000	
  5.6758	  47.8821	   0.0000	
 42.6310	  49.2134	   0.0000	
  7.3079	  48.1178	   0.0000	
 42.4663	  49.5865	   0.0000	
  8.4711	  49.0506	   0.0000	
 41.7678	  49.6557	   0.0000	
 10.1425	  49.4180	   0.0000	
 41.0097	  49.4964	   0.0000	
 11.1750	  49.9775	   0.0000	
 42.7291	  50.7891	   0.0000	
 10.2811	  51.6215	   0.0000	
 38.2453	  49.4165	   0.0000	
 15.0628	  50.2892	   0.0000	
 39.8456	  51.1310	   0.0000	
 14.6193	  51.3742	   0.0000	
 42.0100	  52.9703	   0.0000	
 11.8131	  53.8229	   0.0000	
 41.3439	  54.8973	   0.0000	
 14.5934	  55.6338	   0.0000	
 41.0115	  56.1349	   0.0000	
 13.2685	  57.1488	   0.0000	
 40.7057	  59.0856	   0.0000	
 13.8269	  59.2829	   0.0000	
 41.8974	  64.1604	   0.0000	
 13.9125	  61.7223	   0.0000	
 37.9666	  66.6825	   0.0000	
 20.3930	  61.2188	   0.0000	
 43.3960	  72.4621	   0.0000	
 18.8362	  63.4237	   0.0000	
 30.1580	  71.4360	   0.0000	
 35.5965	  58.8533	   0.0000	
 52.8330	  50.0000	   0.0000	
  1.0743	  31.8824	   0.0000	
 49.9304	  49.4707	   0.0000	
  2.5899	  33.1388	   0.0000	
 46.8908	  48.9047	   0.0000	
  4.0681	  34.4080	   0.0000	
 45.4538	  48.7423	   0.0000	
  5.4592	  35.6708	   0.0000	
 45.4594	  49.1146	   0.0000	
  7.5543	  36.6940	   0.0000	
 45.8979	  49.7937	   0.0000	
  8.1379	  38.5557	   0.0000	
 43.0522	  48.0826	   0.0000	
  9.6908	  39.2152	   0.0000	
 42.2753	  47.9298	   0.0000	
 10.4740	  39.7781	   0.0000	
 42.0870	  48.1898	   0.0000	
 11.2364	  40.6757	   0.0000	
 41.3632	  48.3166	   0.0000	
 12.1466	  42.2134	   0.0000	
 40.8079	  48.3785	   0.0000	
 14.1992	  42.9952	   0.0000	
 40.2495	  48.4219	   0.0000	
 14.7138	  44.4353	   0.0000	
 39.9385	  48.8801	   0.0000	
 15.6795	  45.9233	   0.0000	
 39.6650	  49.5826	   0.0000	
 15.6130	  47.9204	   0.0000	
 39.2829	  48.6626	   0.0000	
 15.6050	  48.1769	   0.0000	
 39.6104	  49.5926	   0.0000	
 15.9129	  49.1137	   0.0000	
 35.1190	  48.4645	   0.0000	
 25.1763	  46.6626	   0.0000	
 38.9910	  53.0945	   0.0000	
 16.4831	  55.3177	   0.0000	
 34.9538	  52.4631	   0.0000	
 21.6964	  54.5196	   0.0000	
 32.4070	  53.7541	   0.0000	
 21.8156	  57.7086	   0.0000	
 34.7203	  59.4030	   0.0000	
 22.7719	  58.9833	   0.0000	
  0.0000	   0.0000	   0.0000	
  0.0000	   0.0000	   0.0000	
 -0.0000	   0.0000	   0.0000	
  0.0000	  -0.0000	   0.0000	
 -0.0000	   0.0000	   0.0000	
  0.0000	   0.0000	   0.0000	
 -0.0000	   0.0000	   0.0000	
 -0.0000	  -0.0000	   0.0000	
 -0.0000	  -0.0000	   0.0000	
 -0.0000	   0.0000	   0.0000	
 -0.0000	  -0.0000	   0.0000	
 -0.0000	  -0.0000	   0.0000	
 -0.0000	   0.0000	   0.0000	
 -0.0000	  -0.0000	   0.0000	