# vtk DataFile Version 3.0 
Results 
ASCII 
DATASET UNSTRUCTURED_GRID 
POINTS 	    1451 float 
  0.0000	   0.6000	  0.0000	 
  0.0000	   1.2000	  0.0000	 
  0.0000	   1.8000	  0.0000	 
  0.0000	   2.4000	  0.0000	 
  0.0000	   3.0000	  0.0000	 
  0.0000	   3.6000	  0.0000	 
  0.0000	   4.2000	  0.0000	 
  0.0000	   4.8000	  0.0000	 
  0.0000	   5.4000	  0.0000	 
  0.0000	   6.0000	  0.0000	 
  0.0000	   6.6000	  0.0000	 
  0.0000	   7.2000	  0.0000	 
  0.0000	   7.8000	  0.0000	 
  0.0000	   8.4000	  0.0000	 
  0.0000	   9.0000	  0.0000	 
  0.0000	   9.6000	  0.0000	 
  0.0000	  10.2000	  0.0000	 
  0.0000	  10.8000	  0.0000	 
  0.0000	  11.4000	  0.0000	 
  0.2250	   0.8475	  0.0000	 
  0.2250	   1.4200	  0.0000	 
  0.2250	   1.9925	  0.0000	 
  0.2250	   2.5650	  0.0000	 
  0.2250	   3.1375	  0.0000	 
  0.2250	   3.7100	  0.0000	 
  0.2250	   4.2825	  0.0000	 
  0.2250	   4.8550	  0.0000	 
  0.2250	   5.4275	  0.0000	 
  0.2250	   6.0000	  0.0000	 
  0.2250	   6.5725	  0.0000	 
  0.2250	   7.1450	  0.0000	 
  0.2250	   7.7175	  0.0000	 
  0.2250	   8.2900	  0.0000	 
  0.2250	   8.8625	  0.0000	 
  0.2250	   9.4350	  0.0000	 
  0.2250	  10.0075	  0.0000	 
  0.2250	  10.5800	  0.0000	 
  0.2250	  11.1525	  0.0000	 
  0.4500	   1.0950	  0.0000	 
  0.4500	   1.6400	  0.0000	 
  0.4500	   2.1850	  0.0000	 
  0.4500	   2.7300	  0.0000	 
  0.4500	   3.2750	  0.0000	 
  0.4500	   3.8200	  0.0000	 
  0.4500	   4.3650	  0.0000	 
  0.4500	   4.9100	  0.0000	 
  0.4500	   5.4550	  0.0000	 
  0.4500	   6.0000	  0.0000	 
  0.4500	   6.5450	  0.0000	 
  0.4500	   7.0900	  0.0000	 
  0.4500	   7.6350	  0.0000	 
  0.4500	   8.1800	  0.0000	 
  0.4500	   8.7250	  0.0000	 
  0.4500	   9.2700	  0.0000	 
  0.4500	   9.8150	  0.0000	 
  0.4500	  10.3600	  0.0000	 
  0.4500	  10.9050	  0.0000	 
  0.6750	   1.3425	  0.0000	 
  0.6750	   1.8600	  0.0000	 
  0.6750	   2.3775	  0.0000	 
  0.6750	   2.8950	  0.0000	 
  0.6750	   3.4125	  0.0000	 
  0.6750	   3.9300	  0.0000	 
  0.6750	   4.4475	  0.0000	 
  0.6750	   4.9650	  0.0000	 
  0.6750	   5.4825	  0.0000	 
  0.6750	   6.0000	  0.0000	 
  0.6750	   6.5175	  0.0000	 
  0.6750	   7.0350	  0.0000	 
  0.6750	   7.5525	  0.0000	 
  0.6750	   8.0700	  0.0000	 
  0.6750	   8.5875	  0.0000	 
  0.6750	   9.1050	  0.0000	 
  0.6750	   9.6225	  0.0000	 
  0.6750	  10.1400	  0.0000	 
  0.6750	  10.6575	  0.0000	 
  0.9000	   1.5900	  0.0000	 
  0.9000	   2.0800	  0.0000	 
  0.9000	   2.5700	  0.0000	 
  0.9000	   3.0600	  0.0000	 
  0.9000	   3.5500	  0.0000	 
  0.9000	   4.0400	  0.0000	 
  0.9000	   4.5300	  0.0000	 
  0.9000	   5.0200	  0.0000	 
  0.9000	   5.5100	  0.0000	 
  0.9000	   6.0000	  0.0000	 
  0.9000	   6.4900	  0.0000	 
  0.9000	   6.9800	  0.0000	 
  0.9000	   7.4700	  0.0000	 
  0.9000	   7.9600	  0.0000	 
  0.9000	   8.4500	  0.0000	 
  0.9000	   8.9400	  0.0000	 
  0.9000	   9.4300	  0.0000	 
  0.9000	   9.9200	  0.0000	 
  0.9000	  10.4100	  0.0000	 
  1.1250	   1.8375	  0.0000	 
  1.1250	   2.3000	  0.0000	 
  1.1250	   2.7625	  0.0000	 
  1.1250	   3.2250	  0.0000	 
  1.1250	   3.6875	  0.0000	 
  1.1250	   4.1500	  0.0000	 
  1.1250	   4.6125	  0.0000	 
  1.1250	   5.0750	  0.0000	 
  1.1250	   5.5375	  0.0000	 
  1.1250	   6.0000	  0.0000	 
  1.1250	   6.4625	  0.0000	 
  1.1250	   6.9250	  0.0000	 
  1.1250	   7.3875	  0.0000	 
  1.1250	   7.8500	  0.0000	 
  1.1250	   8.3125	  0.0000	 
  1.1250	   8.7750	  0.0000	 
  1.1250	   9.2375	  0.0000	 
  1.1250	   9.7000	  0.0000	 
  1.1250	  10.1625	  0.0000	 
  1.3500	   2.0850	  0.0000	 
  1.3500	   2.5200	  0.0000	 
  1.3500	   2.9550	  0.0000	 
  1.3500	   3.3900	  0.0000	 
  1.3500	   3.8250	  0.0000	 
  1.3500	   4.2600	  0.0000	 
  1.3500	   4.6950	  0.0000	 
  1.3500	   5.1300	  0.0000	 
  1.3500	   5.5650	  0.0000	 
  1.3500	   6.0000	  0.0000	 
  1.3500	   6.4350	  0.0000	 
  1.3500	   6.8700	  0.0000	 
  1.3500	   7.3050	  0.0000	 
  1.3500	   7.7400	  0.0000	 
  1.3500	   8.1750	  0.0000	 
  1.3500	   8.6100	  0.0000	 
  1.3500	   9.0450	  0.0000	 
  1.3500	   9.4800	  0.0000	 
  1.3500	   9.9150	  0.0000	 
  1.5750	   2.3325	  0.0000	 
  1.5750	   2.7400	  0.0000	 
  1.5750	   3.1475	  0.0000	 
  1.5750	   3.5550	  0.0000	 
  1.5750	   3.9625	  0.0000	 
  1.5750	   4.3700	  0.0000	 
  1.5750	   4.7775	  0.0000	 
  1.5750	   5.1850	  0.0000	 
  1.5750	   5.5925	  0.0000	 
  1.5750	   6.0000	  0.0000	 
  1.5750	   6.4075	  0.0000	 
  1.5750	   6.8150	  0.0000	 
  1.5750	   7.2225	  0.0000	 
  1.5750	   7.6300	  0.0000	 
  1.5750	   8.0375	  0.0000	 
  1.5750	   8.4450	  0.0000	 
  1.5750	   8.8525	  0.0000	 
  1.5750	   9.2600	  0.0000	 
  1.5750	   9.6675	  0.0000	 
  1.8000	   2.5800	  0.0000	 
  1.8000	   2.9600	  0.0000	 
  1.8000	   3.3400	  0.0000	 
  1.8000	   3.7200	  0.0000	 
  1.8000	   4.1000	  0.0000	 
  1.8000	   4.4800	  0.0000	 
  1.8000	   4.8600	  0.0000	 
  1.8000	   5.2400	  0.0000	 
  1.8000	   5.6200	  0.0000	 
  1.8000	   6.0000	  0.0000	 
  1.8000	   6.3800	  0.0000	 
  1.8000	   6.7600	  0.0000	 
  1.8000	   7.1400	  0.0000	 
  1.8000	   7.5200	  0.0000	 
  1.8000	   7.9000	  0.0000	 
  1.8000	   8.2800	  0.0000	 
  1.8000	   8.6600	  0.0000	 
  1.8000	   9.0400	  0.0000	 
  1.8000	   9.4200	  0.0000	 
  2.0250	   2.8275	  0.0000	 
  2.0250	   3.1800	  0.0000	 
  2.0250	   3.5325	  0.0000	 
  2.0250	   3.8850	  0.0000	 
  2.0250	   4.2375	  0.0000	 
  2.0250	   4.5900	  0.0000	 
  2.0250	   4.9425	  0.0000	 
  2.0250	   5.2950	  0.0000	 
  2.0250	   5.6475	  0.0000	 
  2.0250	   6.0000	  0.0000	 
  2.0250	   6.3525	  0.0000	 
  2.0250	   6.7050	  0.0000	 
  2.0250	   7.0575	  0.0000	 
  2.0250	   7.4100	  0.0000	 
  2.0250	   7.7625	  0.0000	 
  2.0250	   8.1150	  0.0000	 
  2.0250	   8.4675	  0.0000	 
  2.0250	   8.8200	  0.0000	 
  2.0250	   9.1725	  0.0000	 
  2.2500	   3.0750	  0.0000	 
  2.2500	   3.4000	  0.0000	 
  2.2500	   3.7250	  0.0000	 
  2.2500	   4.0500	  0.0000	 
  2.2500	   4.3750	  0.0000	 
  2.2500	   4.7000	  0.0000	 
  2.2500	   5.0250	  0.0000	 
  2.2500	   5.3500	  0.0000	 
  2.2500	   5.6750	  0.0000	 
  2.2500	   6.0000	  0.0000	 
  2.2500	   6.3250	  0.0000	 
  2.2500	   6.6500	  0.0000	 
  2.2500	   6.9750	  0.0000	 
  2.2500	   7.3000	  0.0000	 
  2.2500	   7.6250	  0.0000	 
  2.2500	   7.9500	  0.0000	 
  2.2500	   8.2750	  0.0000	 
  2.2500	   8.6000	  0.0000	 
  2.2500	   8.9250	  0.0000	 
  2.4750	   3.3225	  0.0000	 
  2.4750	   3.6200	  0.0000	 
  2.4750	   3.9175	  0.0000	 
  2.4750	   4.2150	  0.0000	 
  2.4750	   4.5125	  0.0000	 
  2.4750	   4.8100	  0.0000	 
  2.4750	   5.1075	  0.0000	 
  2.4750	   5.4050	  0.0000	 
  2.4750	   5.7025	  0.0000	 
  2.4750	   6.0000	  0.0000	 
  2.4750	   6.2975	  0.0000	 
  2.4750	   6.5950	  0.0000	 
  2.4750	   6.8925	  0.0000	 
  2.4750	   7.1900	  0.0000	 
  2.4750	   7.4875	  0.0000	 
  2.4750	   7.7850	  0.0000	 
  2.4750	   8.0825	  0.0000	 
  2.4750	   8.3800	  0.0000	 
  2.4750	   8.6775	  0.0000	 
  2.7000	   3.5700	  0.0000	 
  2.7000	   3.8400	  0.0000	 
  2.7000	   4.1100	  0.0000	 
  2.7000	   4.3800	  0.0000	 
  2.7000	   4.6500	  0.0000	 
  2.7000	   4.9200	  0.0000	 
  2.7000	   5.1900	  0.0000	 
  2.7000	   5.4600	  0.0000	 
  2.7000	   5.7300	  0.0000	 
  2.7000	   6.0000	  0.0000	 
  2.7000	   6.2700	  0.0000	 
  2.7000	   6.5400	  0.0000	 
  2.7000	   6.8100	  0.0000	 
  2.7000	   7.0800	  0.0000	 
  2.7000	   7.3500	  0.0000	 
  2.7000	   7.6200	  0.0000	 
  2.7000	   7.8900	  0.0000	 
  2.7000	   8.1600	  0.0000	 
  2.7000	   8.4300	  0.0000	 
  2.9250	   3.8175	  0.0000	 
  2.9250	   4.0600	  0.0000	 
  2.9250	   4.3025	  0.0000	 
  2.9250	   4.5450	  0.0000	 
  2.9250	   4.7875	  0.0000	 
  2.9250	   5.0300	  0.0000	 
  2.9250	   5.2725	  0.0000	 
  2.9250	   5.5150	  0.0000	 
  2.9250	   5.7575	  0.0000	 
  2.9250	   6.0000	  0.0000	 
  2.9250	   6.2425	  0.0000	 
  2.9250	   6.4850	  0.0000	 
  2.9250	   6.7275	  0.0000	 
  2.9250	   6.9700	  0.0000	 
  2.9250	   7.2125	  0.0000	 
  2.9250	   7.4550	  0.0000	 
  2.9250	   7.6975	  0.0000	 
  2.9250	   7.9400	  0.0000	 
  2.9250	   8.1825	  0.0000	 
  3.1500	   4.0650	  0.0000	 
  3.1500	   4.2800	  0.0000	 
  3.1500	   4.4950	  0.0000	 
  3.1500	   4.7100	  0.0000	 
  3.1500	   4.9250	  0.0000	 
  3.1500	   5.1400	  0.0000	 
  3.1500	   5.3550	  0.0000	 
  3.1500	   5.5700	  0.0000	 
  3.1500	   5.7850	  0.0000	 
  3.1500	   6.0000	  0.0000	 
  3.1500	   6.2150	  0.0000	 
  3.1500	   6.4300	  0.0000	 
  3.1500	   6.6450	  0.0000	 
  3.1500	   6.8600	  0.0000	 
  3.1500	   7.0750	  0.0000	 
  3.1500	   7.2900	  0.0000	 
  3.1500	   7.5050	  0.0000	 
  3.1500	   7.7200	  0.0000	 
  3.1500	   7.9350	  0.0000	 
  3.3750	   4.3125	  0.0000	 
  3.3750	   4.5000	  0.0000	 
  3.3750	   4.6875	  0.0000	 
  3.3750	   4.8750	  0.0000	 
  3.3750	   5.0625	  0.0000	 
  3.3750	   5.2500	  0.0000	 
  3.3750	   5.4375	  0.0000	 
  3.3750	   5.6250	  0.0000	 
  3.3750	   5.8125	  0.0000	 
  3.3750	   6.0000	  0.0000	 
  3.3750	   6.1875	  0.0000	 
  3.3750	   6.3750	  0.0000	 
  3.3750	   6.5625	  0.0000	 
  3.3750	   6.7500	  0.0000	 
  3.3750	   6.9375	  0.0000	 
  3.3750	   7.1250	  0.0000	 
  3.3750	   7.3125	  0.0000	 
  3.3750	   7.5000	  0.0000	 
  3.3750	   7.6875	  0.0000	 
  3.6000	   4.5600	  0.0000	 
  3.6000	   4.7200	  0.0000	 
  3.6000	   4.8800	  0.0000	 
  3.6000	   5.0400	  0.0000	 
  3.6000	   5.2000	  0.0000	 
  3.6000	   5.3600	  0.0000	 
  3.6000	   5.5200	  0.0000	 
  3.6000	   5.6800	  0.0000	 
  3.6000	   5.8400	  0.0000	 
  3.6000	   6.0000	  0.0000	 
  3.6000	   6.1600	  0.0000	 
  3.6000	   6.3200	  0.0000	 
  3.6000	   6.4800	  0.0000	 
  3.6000	   6.6400	  0.0000	 
  3.6000	   6.8000	  0.0000	 
  3.6000	   6.9600	  0.0000	 
  3.6000	   7.1200	  0.0000	 
  3.6000	   7.2800	  0.0000	 
  3.6000	   7.4400	  0.0000	 
  3.8250	   4.8075	  0.0000	 
  3.8250	   4.9400	  0.0000	 
  3.8250	   5.0725	  0.0000	 
  3.8250	   5.2050	  0.0000	 
  3.8250	   5.3375	  0.0000	 
  3.8250	   5.4700	  0.0000	 
  3.8250	   5.6025	  0.0000	 
[...]
POINT_DATA 	    1451 
VECTORS U float 
 50.0000	   0.0000	   0.0000	
 50.0000	   0.0000	   0.0000	
 50.0000	   0.0000	   0.0000	
 50.0000	   0.0000	   0.0000	
 50.0000	  -0.0000	   0.0000	
 50.0000	  -0.0000	   0.0000	
 50.0000	   0.0000	   0.0000	
 50.0000	  -0.0000	   0.0000	
 50.0000	  -0.0000	   0.0000	
 50.0000	   0.0000	   0.0000	
 50.0000	  -0.0000	   0.0000	
 50.0000	  -0.0000	   0.0000	
 50.0000	   0.0000	   0.0000	
 50.0000	   0.0000	   0.0000	
 50.0000	  -0.0000	   0.0000	
 50.0000	  -0.0000	   0.0000	
 50.0000	   0.0000	   0.0000	
 50.0000	   0.0000	   0.0000	
 50.0000	  -0.0000	   0.0000	
 48.4717	   9.7409	   0.0000	
 51.1753	  12.7110	   0.0000	
 49.7920	  18.6298	   0.0000	
 50.1289	  20.1283	   0.0000	
 50.5028	  15.7021	   0.0000	
 49.0907	  31.7437	   0.0000	
 48.9599	  40.2998	   0.0000	
 49.6042	  46.5325	   0.0000	
 49.5744	  50.1015	   0.0000	
 49.4246	  52.9722	   0.0000	
 50.1591	  53.5253	   0.0000	
 50.5724	  51.0183	   0.0000	
 50.5107	  45.2057	   0.0000	
 51.8047	  36.6443	   0.0000	
 49.6938	  32.6087	   0.0000	
 50.3858	  23.9172	   0.0000	
 50.2762	  26.0921	   0.0000	
 48.9857	  24.6284	   0.0000	
 51.0398	  22.5726	   0.0000	
 47.6689	  17.5193	   0.0000	
 44.5279	  30.7832	   0.0000	
 48.7392	  40.3543	   0.0000	
 52.6325	  31.8605	   0.0000	
 38.9022	  51.4378	   0.0000	
 43.0034	  51.6950	   0.0000	
 44.3249	  66.0279	   0.0000	
 46.8044	  74.5100	   0.0000	
 48.6689	  76.8441	   0.0000	
 48.5645	  78.2272	   0.0000	
 49.8145	  80.6568	   0.0000	
 51.9309	  82.7518	   0.0000	
 54.9975	  79.4361	   0.0000	
 57.9066	  65.3286	   0.0000	
 49.9981	  61.9365	   0.0000	
 57.3298	  59.8036	   0.0000	
 47.3917	  46.0139	   0.0000	
 51.6331	  48.5703	   0.0000	
 51.8917	  47.2823	   0.0000	
 39.0990	  30.3291	   0.0000	
 40.2473	  54.4695	   0.0000	
 57.6721	  44.2866	   0.0000	
 40.5188	  63.4271	   0.0000	
 45.2946	  56.4253	   0.0000	
 38.3236	  61.9475	   0.0000	
 42.6321	  65.1400	   0.0000	
 46.8161	  64.0950	   0.0000	
 47.3487	  67.1862	   0.0000	
 47.3291	  69.9668	   0.0000	
 49.4041	  73.1007	   0.0000	
 49.8917	  73.3596	   0.0000	
 53.4843	  80.7330	   0.0000	
 62.3607	  83.4662	   0.0000	
 52.4063	  79.2188	   0.0000	
 53.7656	  80.7460	   0.0000	
 58.7567	  78.8969	   0.0000	
 49.2007	  66.2062	   0.0000	
 49.7537	  66.6437	   0.0000	
 22.8359	  53.0086	   0.0000	
 55.1883	  50.1116	   0.0000	
 40.9769	  70.1723	   0.0000	
 43.5105	  64.5786	   0.0000	
 41.3976	  66.4077	   0.0000	
 38.0523	  64.1674	   0.0000	
 43.1243	  66.1129	   0.0000	
 45.9266	  69.2309	   0.0000	
 46.5964	  70.9336	   0.0000	
 46.6884	  72.8977	   0.0000	
 47.4950	  73.7458	   0.0000	
 49.5196	  77.6495	   0.0000	
 50.2729	  77.5755	   0.0000	
 59.2294	  80.2376	   0.0000	
 56.7421	  88.9605	   0.0000	
 50.0510	  88.0978	   0.0000	
 59.7574	  93.6852	   0.0000	
 56.1157	  91.7564	   0.0000	
 51.0905	  78.8696	   0.0000	
 43.3021	  51.1973	   0.0000	
 39.9867	  70.0635	   0.0000	
 43.8712	  69.8807	   0.0000	
 43.9814	  70.3380	   0.0000	
 41.5366	  66.7557	   0.0000	
 38.8186	  63.5843	   0.0000	
 41.9238	  66.2095	   0.0000	
 45.1994	  67.9562	   0.0000	
 45.0499	  70.6736	   0.0000	
 45.5827	  73.0352	   0.0000	
 47.8006	  74.9758	   0.0000	
 47.4529	  74.5057	   0.0000	
 50.1371	  79.0517	   0.0000	
 56.2930	  77.0963	   0.0000	
 53.2057	  83.5801	   0.0000	
 50.3455	  94.5662	   0.0000	
 52.9006	  93.4607	   0.0000	
 59.4839	 101.7648	   0.0000	
 60.6210	 102.4473	   0.0000	
 40.0460	  67.4392	   0.0000	
 39.5223	  67.1618	   0.0000	
 44.1383	  68.9769	   0.0000	
 45.3191	  66.9415	   0.0000	
 41.6710	  66.1058	   0.0000	
 38.5865	  65.3757	   0.0000	
 42.1702	  66.6542	   0.0000	
 44.0293	  68.9645	   0.0000	
 44.2579	  71.4127	   0.0000	
 44.4842	  73.2612	   0.0000	
 46.3479	  76.0801	   0.0000	
 47.7108	  77.9334	   0.0000	
 46.8052	  78.4287	   0.0000	
 55.6796	  82.0044	   0.0000	
 51.9438	  84.2997	   0.0000	
 45.8457	  88.6496	   0.0000	
 51.3892	  93.6355	   0.0000	
 52.1374	  97.0102	   0.0000	
 54.8673	 109.5140	   0.0000	
 41.8991	  61.4166	   0.0000	
 41.0269	  58.9322	   0.0000	
 45.3798	  61.4531	   0.0000	
 43.7147	  63.3537	   0.0000	
 40.4771	  65.1968	   0.0000	
 38.8141	  64.0941	   0.0000	
 40.7721	  67.0762	   0.0000	
 42.8412	  70.0926	   0.0000	
 42.7237	  72.3603	   0.0000	
 43.7176	  74.2173	   0.0000	
 45.2259	  75.0659	   0.0000	
 46.3816	  77.4295	   0.0000	
 47.0476	  79.2701	   0.0000	
 51.3943	  77.2247	   0.0000	
 52.2214	  84.6921	   0.0000	
 47.0324	  85.0878	   0.0000	
 46.1866	  82.9594	   0.0000	
 50.9093	  87.5891	   0.0000	
 45.9263	  92.7595	   0.0000	
 41.9336	  60.8202	   0.0000	
 41.6689	  59.4628	   0.0000	
 43.4771	  64.1155	   0.0000	
 40.9151	  67.1299	   0.0000	
 40.5623	  66.8499	   0.0000	
 38.0081	  66.5006	   0.0000	
 39.6867	  69.1255	   0.0000	
 41.8304	  70.6311	   0.0000	
 41.8457	  72.7161	   0.0000	
 42.3527	  74.8261	   0.0000	
 44.6063	  77.4272	   0.0000	
 44.8568	  77.6447	   0.0000	
 45.7330	  80.9094	   0.0000	
 51.5632	  80.6079	   0.0000	
 47.9191	  81.9847	   0.0000	
 49.5101	  88.5789	   0.0000	
 48.1064	  84.7896	   0.0000	
 46.0470	  83.9150	   0.0000	
 46.6363	  91.4480	   0.0000	
 42.9788	  59.5026	   0.0000	
 39.5799	  60.1205	   0.0000	
 40.9601	  65.0288	   0.0000	
 41.1566	  64.3295	   0.0000	
 39.2378	  65.9454	   0.0000	
 37.1774	  66.8525	   0.0000	
 39.0781	  68.3718	   0.0000	
 40.4751	  71.2756	   0.0000	
 40.2480	  73.8315	   0.0000	
 41.2567	  75.7919	   0.0000	
 43.1317	  77.5314	   0.0000	
 44.8060	  79.6454	   0.0000	
 43.6228	  79.8010	   0.0000	
 49.8317	  80.9780	   0.0000	
 48.9786	  83.5113	   0.0000	
 44.6913	  83.6388	   0.0000	
 50.2627	  87.8531	   0.0000	
 48.0074	  86.7620	   0.0000	
 41.0440	  90.1783	   0.0000	
 40.4193	  60.1830	   0.0000	
 36.9750	  60.9102	   0.0000	
 41.8336	  63.3902	   0.0000	
 38.8037	  64.2257	   0.0000	
 37.5151	  66.7183	   0.0000	
 36.7916	  66.6563	   0.0000	
 37.3320	  69.7083	   0.0000	
 38.8264	  72.4517	   0.0000	
 39.0229	  74.6441	   0.0000	
 39.9389	  76.2851	   0.0000	
 42.0323	  78.0741	   0.0000	
 42.9816	  79.0978	   0.0000	
 43.9782	  81.6715	   0.0000	
 47.4441	  79.0657	   0.0000	
 47.8180	  82.6356	   0.0000	
 47.6669	  83.0273	   0.0000	
 43.6698	  81.8909	   0.0000	
 50.4648	  86.6500	   0.0000	
 44.3239	  87.2759	   0.0000	
 37.4703	  62.0733	   0.0000	
 38.8849	  61.0004	   0.0000	
 39.5510	  64.0332	   0.0000	
 36.2849	  65.3687	   0.0000	
 37.1002	  66.6827	   0.0000	
 34.9110	  68.3628	   0.0000	
 35.6532	  70.8468	   0.0000	
 37.3437	  73.2118	   0.0000	
 37.6765	  75.1948	   0.0000	
 38.2033	  77.6515	   0.0000	
 41.0732	  80.0454	   0.0000	
 42.1703	  80.7190	   0.0000	
 42.2942	  81.7888	   0.0000	
 48.1251	  81.6859	   0.0000	
 45.2929	  81.9493	   0.0000	
 47.8828	  83.8426	   0.0000	
 46.2135	  84.5074	   0.0000	
 42.5588	  85.3072	   0.0000	
 48.4162	  90.4230	   0.0000	
 39.6609	  60.8697	   0.0000	
 36.2083	  61.5796	   0.0000	
 37.1475	  65.6424	   0.0000	
 35.2656	  64.7112	   0.0000	
 34.7531	  67.5896	   0.0000	
 33.3094	  68.6402	   0.0000	
 34.2789	  70.8732	   0.0000	
 35.8102	  73.2320	   0.0000	
 35.6572	  76.0780	   0.0000	
 36.4911	  78.2429	   0.0000	
 38.7755	  80.5402	   0.0000	
 41.4179	  82.9211	   0.0000	
 41.8915	  83.6028	   0.0000	
 45.8375	  81.8962	   0.0000	
 46.4958	  84.8367	   0.0000	
 45.0554	  84.0515	   0.0000	
 45.4861	  88.3305	   0.0000	
 46.3497	  88.0510	   0.0000	
 38.8088	  88.3581	   0.0000	
 35.9399	  58.1420	   0.0000	
 32.2682	  59.9198	   0.0000	
 36.9428	  64.7588	   0.0000	
 31.9093	  66.0560	   0.0000	
 32.8744	  69.5263	   0.0000	
 32.0257	  70.6621	   0.0000	
 32.2238	  72.9549	   0.0000	
 33.0207	  76.8933	   0.0000	
 33.5833	  79.7603	   0.0000	
 35.6136	  80.6654	   0.0000	
 37.2536	  81.0414	   0.0000	
 38.3669	  82.4895	   0.0000	
 41.6280	  85.3659	   0.0000	
 46.0153	  83.3291	   0.0000	
 43.5201	  84.7016	   0.0000	
 46.7485	  85.5626	   0.0000	
 41.2652	  86.9069	   0.0000	
 47.9558	  84.7037	   0.0000	
 47.7775	  78.5679	   0.0000	
 30.9134	  59.3356	   0.0000	
 30.6904	  60.3309	   0.0000	
 31.5395	  65.6202	   0.0000	
 28.9244	  65.7275	   0.0000	
 31.0510	  68.8763	   0.0000	
 29.9345	  70.3037	   0.0000	
 28.5284	  73.6554	   0.0000	
 30.3492	  76.3814	   0.0000	
 32.7642	  77.6263	   0.0000	
 31.7963	  81.0371	   0.0000	
 37.7952	  84.7026	   0.0000	
 36.4080	  83.4120	   0.0000	
 38.5090	  84.7461	   0.0000	
 45.5551	  84.5536	   0.0000	
 43.2580	  86.8091	   0.0000	
 44.1283	  86.8308	   0.0000	
 44.4608	  89.6034	   0.0000	
 47.1417	  82.9564	   0.0000	
 53.3767	  76.4042	   0.0000	
 27.3185	  58.3058	   0.0000	
 25.2731	  64.4311	   0.0000	
 28.6758	  69.1470	   0.0000	
 27.6862	  70.4724	   0.0000	
 28.9938	  72.6814	   0.0000	
 26.2057	  73.6155	   0.0000	
 26.9506	  74.2622	   0.0000	
 30.2160	  74.4920	   0.0000	
 28.8666	  77.4353	   0.0000	
 27.3636	  81.3360	   0.0000	
 32.7742	  85.6610	   0.0000	
 38.2195	  89.1424	   0.0000	
 37.7766	  87.7065	   0.0000	
 39.7078	  88.4464	   0.0000	
 41.7347	  95.6184	   0.0000	
 42.6466	  97.2203	   0.0000	
 42.9441	  96.0600	   0.0000	
 55.2623	  87.0826	   0.0000	
 53.5873	  77.0691	   0.0000	
 20.7543	  56.3354	   0.0000	
 24.9103	  61.2997	   0.0000	
 17.3152	  67.9609	   0.0000	
 25.4370	  77.3728	   0.0000	
 25.7706	  81.2770	   0.0000	
 27.2775	  81.6382	   0.0000	
 28.4277	  80.5692	   0.0000	
 26.1342	  83.1015	   0.0000	
 23.4730	  87.3413	   0.0000	
 28.1377	  86.8616	   0.0000	
 26.4005	  86.1498	   0.0000	
 30.2230	  92.2227	   0.0000	
 40.0260	  97.1015	   0.0000	
 36.4837	  95.1970	   0.0000	
 29.0664	 102.4185	   0.0000	
 40.5612	 102.4149	   0.0000	
 52.3460	  93.2214	   0.0000	
 49.2925	  85.6690	   0.0000	
 64.3034	  73.3690	   0.0000	
  8.9067	  52.3081	   0.0000	
  6.5353	  58.8486	   0.0000	
 17.3702	  65.0218	   0.0000	
 18.7408	  70.6463	   0.0000	
 25.2935	  74.4412	   0.0000	
 30.6280	  73.9745	   0.0000	
 23.2188	  73.9730	   0.0000	
 18.7246	  77.0046	   0.0000	
 24.9716	  76.8526	   0.0000	
 19.4510	  81.1304	   0.0000	
 28.3083	  86.7180	   0.0000	
 17.4549	  86.9707	   0.0000	
 24.5862	  95.6003	   0.0000	
 43.5044	  98.5313	   0.0000	
 22.0667	 107.4832	   0.0000	
 33.1324	 112.0291	   0.0000	
 43.6255	 103.3399	   0.0000	
 63.7624	  96.3259	   0.0000	
 69.5977	  82.9814	   0.0000	
  2.0332	  56.4338	   0.0000	
  6.7351	  66.9686	   0.0000	
 11.6343	  74.0602	   0.0000	
 26.7930	  80.4624	   0.0000	
 33.2064	  83.6507	   0.0000	
 20.4048	  81.5569	   0.0000	
 14.0736	  87.4059	   0.0000	
 19.8870	  90.9341	   0.0000	
 16.2325	  96.3963	   0.0000	
 15.2428	 100.2184	   0.0000	
 14.6834	 102.4909	   0.0000	
 18.7252	 110.2708	   0.0000	
  4.2583	 114.9407	   0.0000	
 20.1547	 119.7226	   0.0000	
 16.1818	 133.9664	   0.0000	
  7.9699	 144.8605	   0.0000	
 28.8261	 137.8162	   0.0000	
 65.0275	 116.5510	   0.0000	
 73.1388	  91.0749	   0.0000	
 -3.5840	  39.5022	   0.0000	
  4.2746	  46.7155	   0.0000	
 16.5650	  54.3867	   0.0000	
 23.5918	  63.0079	   0.0000	
  2.6260	  69.8510	   0.0000	
 -0.1742	  71.8054	   0.0000	
  9.8323	  76.2674	   0.0000	
 -0.1804	  80.3548	   0.0000	
  8.2785	  83.9320	   0.0000	
 -0.6863	  87.4646	   0.0000	
 10.6717	  91.5470	   0.0000	
 -2.8666	  95.0356	   0.0000	
  8.8493	  97.1382	   0.0000	
 -1.2401	 100.5469	   0.0000	
 -0.2320	  99.9268	   0.0000	
 -3.9914	 105.4456	   0.0000	
  0.0099	 103.7625	   0.0000	
 24.7408	  99.8936	   0.0000	
 63.7993	  88.3086	   0.0000	
 -0.0000	  -0.0000	   0.0000	
  0.0000	   0.0000	   0.0000	
 -0.0000	   0.0000	   0.0000	
 -0.0000	   0.0000	   0.0000	
  0.0000	  -0.0000	   0.0000	
 -0.0000	   0.0000	   0.0000	
  0.0000	   0.0000	   0.0000	
  0.0000	  -0.0000	   0.0000	
 -0.0000	  -0.0000	   0.0000	
  0.0000	   0.0000	   0.0000	
  0.0000	   0.0000	   0.0000	
  0.0000	  -0.0000	   0.0000	
 -0.0000	  -0.0000	   0.0000	
 -0.0000	   0.0000	   0.0000	
 -0.0000	  -0.0000	   0.0000	
 -0.0000	  -0.0000	   0.0000	
  0.0000	  -0.0000	   0.0000	
 -0.0000	  -0.0000	   0.0000	
  0.0000	   0.0000	   0.0000	
 50.0000	  50.0000	   0.0000	
 50.0000	  -0.0000	   0.0000	
 69.8340	  49.7220	   0.0000	
 49.8099	  17.2810	   0.0000	
 84.7892	  50.2528	   0.0000	
 53.1988	  35.2755	   0.0000	
 77.0997	  55.8022	   0.0000	
 62.2657	  54.5409	   0.0000	
 72.1293	  60.8693	   0.0000	
 63.2262	  70.8667	   0.0000	
 41.9513	  79.7504	   0.0000	
 55.2650	  81.3592	   0.0000	
 48.6115	  72.9437	   0.0000	
 73.3438	 101.1680	   0.0000	
 45.0102	  73.1963	   0.0000	
 64.9082	  91.6008	   0.0000	
 49.1695	  67.4977	   0.0000	
 53.0240	  81.8653	   0.0000	
 47.5770	  66.4500	   0.0000	
 55.9141	  81.1285	   0.0000	
 47.5268	  64.1185	   0.0000	
 50.9353	  76.1718	   0.0000	
 43.1895	  64.2834	   0.0000	
 54.5465	  76.3134	   0.0000	
 39.2633	  63.3920	   0.0000	
 60.9171	  76.6565	   0.0000	
 40.7680	  58.9604	   0.0000	
 48.2547	  68.1265	   0.0000	
 34.4091	  57.3698	   0.0000	
 56.3445	  68.9334	   0.0000	
 28.8474	  54.8763	   0.0000	
 61.2105	  67.2874	   0.0000	
 18.7034	  53.0965	   0.0000	
 66.6640	  64.9715	   0.0000	
 16.7930	  44.0288	   0.0000	
 76.0226	  61.3832	   0.0000	
 -9.3462	  44.4706	   0.0000	
 98.3914	  62.8019	   0.0000	
-14.7823	  29.9782	   0.0000	
119.9348	  58.7623	   0.0000	
 -0.0000	   0.0000	   0.0000	
 -0.0000	  -0.0000	   0.0000	
 51.0190	  50.0000	   0.0000	
 92.1994	 163.8148	   0.0000	
 45.5999	  50.0208	   0.0000	
 54.4907	 144.9358	   0.0000	
 44.1725	  50.0393	   0.0000	
 34.3941	 128.2978	   0.0000	
 41.8440	  49.2150	   0.0000	
 21.2490	 114.1826	   0.0000	
 43.5139	  47.7697	   0.0000	
 21.6782	 108.4480	   0.0000	
 45.2671	  46.4559	   0.0000	
 19.8593	 103.2724	   0.0000	
 43.2301	  46.7161	   0.0000	
 23.3851	 100.6032	   0.0000	
 44.0401	  46.2447	   0.0000	
 21.9626	  95.8967	   0.0000	
 43.2047	  45.6291	   0.0000	
 23.7040	  92.0328	   0.0000	
 40.9688	  45.6917	   0.0000	
 25.8298	  88.1329	   0.0000	
 39.7998	  44.9655	   0.0000	
 33.7526	  86.5422	   0.0000	
 45.1852	  41.9966	   0.0000	
 24.9264	  78.7159	   0.0000	
 40.4981	  42.3346	   0.0000	
 32.1387	  76.8669	   0.0000	
 41.0947	  39.6669	   0.0000	
 34.0654	  72.2182	   0.0000	
 39.8064	  35.6245	   0.0000	
 35.5262	  66.1415	   0.0000	
 41.3131	  30.6176	   0.0000	
 39.3094	  57.7380	   0.0000	
 31.2869	  28.1371	   0.0000	
 51.3108	  51.1008	   0.0000	
 19.1247	  22.8404	   0.0000	
 69.4614	  42.8861	   0.0000	
 41.5387	   3.0256	   0.0000	
 61.6343	  22.8844	   0.0000	
 28.9255	   0.4281	   0.0000	
 -4.4950	  -1.7049	   0.0000	
 -0.0000	   0.0000	   0.0000	
 -0.0000	  -0.0000	   0.0000	
 50.3299	  50.0000	   0.0000	
-46.8283	  64.5604	   0.0000	
 50.3408	  50.3827	   0.0000	
-13.8519	  66.5171	   0.0000	
 46.7136	  50.7720	   0.0000	
  1.1480	  66.5367	   0.0000	
 44.2400	  52.2582	   0.0000	
  8.2752	  66.4201	   0.0000	
 45.6069	  52.3836	   0.0000	
 10.2442	  65.1586	   0.0000	
 44.6022	  53.1353	   0.0000	
  9.6917	  64.0089	   0.0000	
 45.7293	  53.9035	   0.0000	
 11.1802	  62.9951	   0.0000	
 45.9749	  53.8503	   0.0000	
 12.7803	  61.5337	   0.0000	
 44.9945	  54.7572	   0.0000	
 15.7152	  60.4051	   0.0000	
 43.9826	  55.6676	   0.0000	
 18.6659	  59.5224	   0.0000	
 47.1488	  55.7307	   0.0000	
 15.1472	  58.0756	   0.0000	
 48.2502	  56.5737	   0.0000	
 17.0141	  56.2749	   0.0000	
 53.5753	  56.9744	   0.0000	
 16.8053	  54.1325	   0.0000	
 55.3276	  58.2006	   0.0000	
  7.7608	  51.4233	   0.0000	
 57.8170	  59.2685	   0.0000	
 10.1659	  49.6544	   0.0000	
 63.7426	  58.0649	   0.0000	
  8.9554	  44.7289	   0.0000	
 63.4883	  57.8139	   0.0000	
 16.6502	  40.4666	   0.0000	
 73.1348	  59.5453	   0.0000	
 21.2312	  36.8132	   0.0000	
 70.7445	  59.2212	   0.0000	
 -2.5311	  37.7635	   0.0000	
 44.1282	  59.5560	   0.0000	
 -0.4197	  43.5086	   0.0000	
 28.1316	  58.0568	   0.0000	
  1.9829	  46.5225	   0.0000	
 45.6133	  50.0000	   0.0000	
 10.3820	  53.2419	   0.0000	
 42.0612	  50.1506	   0.0000	
 -2.3277	  58.3415	   0.0000	
 40.8047	  50.4051	   0.0000	
  2.6596	  58.8727	   0.0000	
 38.4238	  50.0294	   0.0000	
  5.2493	  58.5803	   0.0000	
 39.4012	  50.5333	   0.0000	
  6.6098	  58.5710	   0.0000	
 40.6542	  51.0195	   0.0000	
  6.3430	  58.9673	   0.0000	
 39.1828	  50.9422	   0.0000	
 10.6234	  58.0759	   0.0000	
 39.8385	  51.7121	   0.0000	
  9.2111	  59.2269	   0.0000	
 40.7335	  52.3120	   0.0000	
 11.3658	  58.6132	   0.0000	
 38.6368	  52.5130	   0.0000	
 12.9273	  58.3284	   0.0000	
 42.7238	  53.5754	   0.0000	
 13.8883	  58.5572	   0.0000	
 39.3894	  53.6458	   0.0000	
 15.0755	  57.9616	   0.0000	
 39.4591	  55.2664	   0.0000	
 12.2356	  59.4541	   0.0000	
 43.3602	  57.8748	   0.0000	
 13.7646	  60.6198	   0.0000	
 40.9099	  59.0454	   0.0000	
 13.8472	  60.9570	   0.0000	
 45.6804	  63.6794	   0.0000	
  8.2309	  64.3329	   0.0000	
 43.9310	  67.3678	   0.0000	
  9.1115	  65.3612	   0.0000	
 43.3708	  72.7619	   0.0000	
 13.1543	  65.9371	   0.0000	
 47.6914	  79.4476	   0.0000	
 21.3710	  63.4896	   0.0000	
 39.1233	  88.0497	   0.0000	
 19.0307	  71.5933	   0.0000	
 16.7905	  90.5951	   0.0000	
 23.6843	  75.6404	   0.0000	
 42.1685	  50.0000	   0.0000	
 -1.5444	  45.6484	   0.0000	
 42.6591	  50.0503	   0.0000	
  2.2121	  44.8990	   0.0000	
 42.2620	  50.5977	   0.0000	
  4.6641	  44.1517	   0.0000	
 40.8532	  50.0852	   0.0000	
  7.7452	  43.3855	   0.0000	
 42.1195	  50.7050	   0.0000	
  7.3789	  44.3009	   0.0000	
 41.7463	  50.1733	   0.0000	
  5.6407	  46.4888	   0.0000	
 41.3846	  49.9597	   0.0000	
  6.9947	  46.6488	   0.0000	
 40.9279	  49.7047	   0.0000	
  7.2796	  47.9620	   0.0000	
 40.4939	  49.7050	   0.0000	
  9.6221	  47.9322	   0.0000	
 39.0434	  49.0830	   0.0000	
 11.3737	  47.9865	   0.0000	
 39.9454	  49.8501	   0.0000	
  9.4389	  49.9937	   0.0000	
 38.5457	  49.4311	   0.0000	
 13.6518	  48.8621	   0.0000	
 39.6418	  50.7187	   0.0000	
 13.8181	  49.7751	   0.0000	
 37.2561	  49.8367	   0.0000	
 14.0972	  50.3547	   0.0000	
 38.3006	  51.2215	   0.0000	
 14.9412	  51.3970	   0.0000	
 37.1086	  51.5239	   0.0000	
 15.9769	  51.7602	   0.0000	
 35.2575	  52.3057	   0.0000	
 16.7528	  53.2522	   0.0000	
 37.6332	  55.9637	   0.0000	
 14.7233	  57.4360	   0.0000	
 31.7881	  55.6627	   0.0000	
 22.2627	  57.6700	   0.0000	
 35.9415	  60.8807	   0.0000	
 17.7228	  61.7108	   0.0000	
 11.2407	  58.5493	   0.0000	
 38.3883	  55.9402	   0.0000	
 49.4311	  50.0000	   0.0000	
  0.3540	  29.3643	   0.0000	
 47.0369	  49.3168	   0.0000	
  1.6852	  30.8483	   0.0000	
 44.4822	  48.6043	   0.0000	
  3.0190	  32.3024	   0.0000	
 43.9063	  48.3811	   0.0000	
  3.8848	  33.9312	   0.0000	
 45.6590	  48.9922	   0.0000	
  6.4362	  34.8523	   0.0000	
 45.3361	  48.6304	   0.0000	
  7.4559	  36.6361	   0.0000	
 41.8064	  45.9633	   0.0000	
  7.9310	  38.1630	   0.0000	
 41.3730	  46.0482	   0.0000	
  9.0735	  38.4934	   0.0000	
 41.0172	  46.8016	   0.0000	
 10.1260	  38.8534	   0.0000	
 39.5386	  47.1585	   0.0000	
 11.6992	  40.0440	   0.0000	
 38.8914	  47.4955	   0.0000	
 13.2235	  41.3970	   0.0000	
 37.7232	  48.0632	   0.0000	
 14.6154	  42.4601	   0.0000	
 36.6536	  48.3587	   0.0000	
 15.8612	  44.0995	   0.0000	
 36.4856	  49.6775	   0.0000	
 15.4255	  46.5905	   0.0000	
 35.7456	  49.6698	   0.0000	
 16.9888	  46.6385	   0.0000	
 33.5775	  50.4141	   0.0000	
 18.2728	  47.8673	   0.0000	
 33.3174	  51.0061	   0.0000	
 21.0215	  48.0960	   0.0000	
 33.5777	  52.6402	   0.0000	
 19.3570	  50.9803	   0.0000	
 30.5033	  52.0737	   0.0000	
 21.9605	  51.3891	   0.0000	
 29.9131	  52.9094	   0.0000	
 24.6994	  51.2655	   0.0000	
 26.0370	  53.3015	   0.0000	
 22.8641	  55.0728	   0.0000	
  0.0000	   0.0000	   0.0000	
  0.0000	   0.0000	   0.0000	
 -0.0000	   0.0000	   0.0000	
  0.0000	  -0.0000	   0.0000	
 -0.0000	   0.0000	   0.0000	
  0.0000	   0.0000	   0.0000	
 -0.0000	   0.0000	   0.0000	
 -0.0000	  -0.0000	   0.0000	
 -0.0000	  -0.0000	   0.0000	
 -0.0000	   0.0000	   0.0000	
 -0.0000	  -0.0000	   0.0000	
 -0.0000	  -0.0000	   0.0000	
 -0.0000	   0.0000	   0.0000	
 -0.0000	  -0.0000	   0.0000	