# vtk DataFile Version 3.0 
Results 
ASCII 
DATASET UNSTRUCTURED_GRID 
POINTS 	    1451 float 
  0.0000	   0.6000	  0.0000	 
  0.0000	   1.2000	  0.0000	 
  0.0000	   1.8000	  0.0000	 
  0.0000	   2.4000	  0.0000	 
  0.0000	   3.0000	  0.0000	 
  0.0000	   3.6000	  0.0000	 
  0.0000	   4.2000	  0.0000	 
  0.0000	   4.8000	  0.0000	 
  0.0000	   5.4000	  0.0000	 
  0.0000	   6.0000	  0.0000	 
  0.0000	   6.6000	  0.0000	 
  0.0000	   7.2000	  0.0000	 
  0.0000	   7.8000	  0.0000	 
  0.0000	   8.4000	  0.0000	 
  0.0000	   9.0000	  0.0000	 
  0.0000	   9.6000	  0.0000	 
  0.0000	  10.2000	  0.0000	 
  0.0000	  10.8000	  0.0000	 
  0.0000	  11.4000	  0.0000	 
  0.2250	   0.8475	  0.0000	 
  0.2250	   1.4200	  0.0000	 
  0.2250	   1.9925	  0.0000	 
  0.2250	   2.5650	  0.0000	 
  0.2250	   3.1375	  0.0000	 
  0.2250	   3.7100	  0.0000	 
  0.2250	   4.2825	  0.0000	 
  0.2250	   4.8550	  0.0000	 
  0.2250	   5.4275	  0.0000	 
  0.2250	   6.0000	  0.0000	 
  0.2250	   6.5725	  0.0000	 
  0.2250	   7.1450	  0.0000	 
  0.2250	   7.7175	  0.0000	 
  0.2250	   8.2900	  0.0000	 
  0.2250	   8.8625	  0.0000	 
  0.2250	   9.4350	  0.0000	 
  0.2250	  10.0075	  0.0000	 
  0.2250	  10.5800	  0.0000	 
  0.2250	  11.1525	  0.0000	 
  0.4500	   1.0950	  0.0000	 
  0.4500	   1.6400	  0.0000	 
  0.4500	   2.1850	  0.0000	 
  0.4500	   2.7300	  0.0000	 
  0.4500	   3.2750	  0.0000	 
  0.4500	   3.8200	  0.0000	 
  0.4500	   4.3650	  0.0000	 
  0.4500	   4.9100	  0.0000	 
  0.4500	   5.4550	  0.0000	 
  0.4500	   6.0000	  0.0000	 
  0.4500	   6.5450	  0.0000	 
  0.4500	   7.0900	  0.0000	 
  0.4500	   7.6350	  0.0000	 
  0.4500	   8.1800	  0.0000	 
  0.4500	   8.7250	  0.0000	 
  0.4500	   9.2700	  0.0000	 
  0.4500	   9.8150	  0.0000	 
  0.4500	  10.3600	  0.0000	 
  0.4500	  10.9050	  0.0000	 
  0.6750	   1.3425	  0.0000	 
  0.6750	   1.8600	  0.0000	 
  0.6750	   2.3775	  0.0000	 
  0.6750	   2.8950	  0.0000	 
  0.6750	   3.4125	  0.0000	 
  0.6750	   3.9300	  0.0000	 
  0.6750	   4.4475	  0.0000	 
  0.6750	   4.9650	  0.0000	 
  0.6750	   5.4825	  0.0000	 
  0.6750	   6.0000	  0.0000	 
  0.6750	   6.5175	  0.0000	 
  0.6750	   7.0350	  0.0000	 
  0.6750	   7.5525	  0.0000	 
  0.6750	   8.0700	  0.0000	 
  0.6750	   8.5875	  0.0000	 
  0.6750	   9.1050	  0.0000	 
  0.6750	   9.6225	  0.0000	 
  0.6750	  10.1400	  0.0000	 
  0.6750	  10.6575	  0.0000	 
  0.9000	   1.5900	  0.0000	 
  0.9000	   2.0800	  0.0000	 
  0.9000	   2.5700	  0.0000	 
  0.9000	   3.0600	  0.0000	 
  0.9000	   3.5500	  0.0000	 
  0.9000	   4.0400	  0.0000	 
  0.9000	   4.5300	  0.0000	 
  0.9000	   5.0200	  0.0000	 
  0.9000	   5.5100	  0.0000	 
  0.9000	   6.0000	  0.0000	 
  0.9000	   6.4900	  0.0000	 
  0.9000	   6.9800	  0.0000	 
  0.9000	   7.4700	  0.0000	 
  0.9000	   7.9600	  0.0000	 
  0.9000	   8.4500	  0.0000	 
  0.9000	   8.9400	  0.0000	 
  0.9000	   9.4300	  0.0000	 
  0.9000	   9.9200	  0.0000	 
  0.9000	  10.4100	  0.0000	 
  1.1250	   1.8375	  0.0000	 
  1.1250	   2.3000	  0.0000	 
  1.1250	   2.7625	  0.0000	 
  1.1250	   3.2250	  0.0000	 
  1.1250	   3.6875	  0.0000	 
  1.1250	   4.1500	  0.0000	 
  1.1250	   4.6125	  0.0000	 
  1.1250	   5.0750	  0.0000	 
  1.1250	   5.5375	  0.0000	 
  1.1250	   6.0000	  0.0000	 
  1.1250	   6.4625	  0.0000	 
  1.1250	   6.9250	  0.0000	 
  1.1250	   7.3875	  0.0000	 
  1.1250	   7.8500	  0.0000	 
  1.1250	   8.3125	  0.0000	 
  1.1250	   8.7750	  0.0000	 
  1.1250	   9.2375	  0.0000	 
  1.1250	   9.7000	  0.0000	 
  1.1250	  10.1625	  0.0000	 
  1.3500	   2.0850	  0.0000	 
  1.3500	   2.5200	  0.0000	 
  1.3500	   2.9550	  0.0000	 
  1.3500	   3.3900	  0.0000	 
  1.3500	   3.8250	  0.0000	 
  1.3500	   4.2600	  0.0000	 
  1.3500	   4.6950	  0.0000	 
  1.3500	   5.1300	  0.0000	 
  1.3500	   5.5650	  0.0000	 
  1.3500	   6.0000	  0.0000	 
  1.3500	   6.4350	  0.0000	 
  1.3500	   6.8700	  0.0000	 
  1.3500	   7.3050	  0.0000	 
  1.3500	   7.7400	  0.0000	 
  1.3500	   8.1750	  0.0000	 
  1.3500	   8.6100	  0.0000	 
  1.3500	   9.0450	  0.0000	 
  1.3500	   9.4800	  0.0000	 
  1.3500	   9.9150	  0.0000	 
  1.5750	   2.3325	  0.0000	 
  1.5750	   2.7400	  0.0000	 
  1.5750	   3.1475	  0.0000	 
  1.5750	   3.5550	  0.0000	 
  1.5750	   3.9625	  0.0000	 
  1.5750	   4.3700	  0.0000	 
  1.5750	   4.7775	  0.0000	 
  1.5750	   5.1850	  0.0000	 
  1.5750	   5.5925	  0.0000	 
  1.5750	   6.0000	  0.0000	 
  1.5750	   6.4075	  0.0000	 
  1.5750	   6.8150	  0.0000	 
  1.5750	   7.2225	  0.0000	 
  1.5750	   7.6300	  0.0000	 
  1.5750	   8.0375	  0.0000	 
  1.5750	   8.4450	  0.0000	 
  1.5750	   8.8525	  0.0000	 
  1.5750	   9.2600	  0.0000	 
  1.5750	   9.6675	  0.0000	 
  1.8000	   2.5800	  0.0000	 
  1.8000	   2.9600	  0.0000	 
  1.8000	   3.3400	  0.0000	 
  1.8000	   3.7200	  0.0000	 
  1.8000	   4.1000	  0.0000	 
  1.8000	   4.4800	  0.0000	 
  1.8000	   4.8600	  0.0000	 
  1.8000	   5.2400	  0.0000	 
  1.8000	   5.6200	  0.0000	 
  1.8000	   6.0000	  0.0000	 
  1.8000	   6.3800	  0.0000	 
  1.8000	   6.7600	  0.0000	 
  1.8000	   7.1400	  0.0000	 
  1.8000	   7.5200	  0.0000	 
  1.8000	   7.9000	  0.0000	 
  1.8000	   8.2800	  0.0000	 
  1.8000	   8.6600	  0.0000	 
  1.8000	   9.0400	  0.0000	 
  1.8000	   9.4200	  0.0000	 
  2.0250	   2.8275	  0.0000	 
  2.0250	   3.1800	  0.0000	 
  2.0250	   3.5325	  0.0000	 
  2.0250	   3.8850	  0.0000	 
  2.0250	   4.2375	  0.0000	 
  2.0250	   4.5900	  0.0000	 
  2.0250	   4.9425	  0.0000	 
  2.0250	   5.2950	  0.0000	 
  2.0250	   5.6475	  0.0000	 
  2.0250	   6.0000	  0.0000	 
  2.0250	   6.3525	  0.0000	 
  2.0250	   6.7050	  0.0000	 
  2.0250	   7.0575	  0.0000	 
  2.0250	   7.4100	  0.0000	 
  2.0250	   7.7625	  0.0000	 
  2.0250	   8.1150	  0.0000	 
  2.0250	   8.4675	  0.0000	 
  2.0250	   8.8200	  0.0000	 
  2.0250	   9.1725	  0.0000	 
  2.2500	   3.0750	  0.0000	 
  2.2500	   3.4000	  0.0000	 
  2.2500	   3.7250	  0.0000	 
  2.2500	   4.0500	  0.0000	 
  2.2500	   4.3750	  0.0000	 
  2.2500	   4.7000	  0.0000	 
  2.2500	   5.0250	  0.0000	 
  2.2500	   5.3500	  0.0000	 
  2.2500	   5.6750	  0.0000	 
  2.2500	   6.0000	  0.0000	 
  2.2500	   6.3250	  0.0000	 
  2.2500	   6.6500	  0.0000	 
  2.2500	   6.9750	  0.0000	 
  2.2500	   7.3000	  0.0000	 
  2.2500	   7.6250	  0.0000	 
  2.2500	   7.9500	  0.0000	 
  2.2500	   8.2750	  0.0000	 
  2.2500	   8.6000	  0.0000	 
  2.2500	   8.9250	  0.0000	 
  2.4750	   3.3225	  0.0000	 
  2.4750	   3.6200	  0.0000	 
  2.4750	   3.9175	  0.0000	 
  2.4750	   4.2150	  0.0000	 
  2.4750	   4.5125	  0.0000	 
  2.4750	   4.8100	  0.0000	 
  2.4750	   5.1075	  0.0000	 
  2.4750	   5.4050	  0.0000	 
  2.4750	   5.7025	  0.0000	 
  2.4750	   6.0000	  0.0000	 
  2.4750	   6.2975	  0.0000	 
  2.4750	   6.5950	  0.0000	 
  2.4750	   6.8925	  0.0000	 
  2.4750	   7.1900	  0.0000	 
  2.4750	   7.4875	  0.0000	 
  2.4750	   7.7850	  0.0000	 
  2.4750	   8.0825	  0.0000	 
  2.4750	   8.3800	  0.0000	 
  2.4750	   8.6775	  0.0000	 
  2.7000	   3.5700	  0.0000	 
  2.7000	   3.8400	  0.0000	 
  2.7000	   4.1100	  0.0000	 
  2.7000	   4.3800	  0.0000	 
  2.7000	   4.6500	  0.0000	 
  2.7000	   4.9200	  0.0000	 
  2.7000	   5.1900	  0.0000	 
  2.7000	   5.4600	  0.0000	 
  2.7000	   5.7300	  0.0000	 
  2.7000	   6.0000	  0.0000	 
  2.7000	   6.2700	  0.0000	 
  2.7000	   6.5400	  0.0000	 
  2.7000	   6.8100	  0.0000	 
  2.7000	   7.0800	  0.0000	 
  2.7000	   7.3500	  0.0000	 
  2.7000	   7.6200	  0.0000	 
  2.7000	   7.8900	  0.0000	 
  2.7000	   8.1600	  0.0000	 
  2.7000	   8.4300	  0.0000	 
  2.9250	   3.8175	  0.0000	 
  2.9250	   4.0600	  0.0000	 
  2.9250	   4.3025	  0.0000	 
  2.9250	   4.5450	  0.0000	 
  2.9250	   4.7875	  0.0000	 
  2.9250	   5.0300	  0.0000	 
  2.9250	   5.2725	  0.0000	 
  2.9250	   5.5150	  0.0000	 
  2.9250	   5.7575	  0.0000	 
  2.9250	   6.0000	  0.0000	 
  2.9250	   6.2425	  0.0000	 
  2.9250	   6.4850	  0.0000	 
  2.9250	   6.7275	  0.0000	 
  2.9250	   6.9700	  0.0000	 
  2.9250	   7.2125	  0.0000	 
  2.9250	   7.4550	  0.0000	 
  2.9250	   7.6975	  0.0000	 
  2.9250	   7.9400	  0.0000	 
  2.9250	   8.1825	  0.0000	 
  3.1500	   4.0650	  0.0000	 
  3.1500	   4.2800	  0.0000	 
  3.1500	   4.4950	  0.0000	 
  3.1500	   4.7100	  0.0000	 
  3.1500	   4.9250	  0.0000	 
  3.1500	   5.1400	  0.0000	 
  3.1500	   5.3550	  0.0000	 
  3.1500	   5.5700	  0.0000	 
  3.1500	   5.7850	  0.0000	 
  3.1500	   6.0000	  0.0000	 
  3.1500	   6.2150	  0.0000	 
  3.1500	   6.4300	  0.0000	 
  3.1500	   6.6450	  0.0000	 
  3.1500	   6.8600	  0.0000	 
  3.1500	   7.0750	  0.0000	 
  3.1500	   7.2900	  0.0000	 
  3.1500	   7.5050	  0.0000	 
  3.1500	   7.7200	  0.0000	 
  3.1500	   7.9350	  0.0000	 
  3.3750	   4.3125	  0.0000	 
  3.3750	   4.5000	  0.0000	 
  3.3750	   4.6875	  0.0000	 
  3.3750	   4.8750	  0.0000	 
  3.3750	   5.0625	  0.0000	 
  3.3750	   5.2500	  0.0000	 
  3.3750	   5.4375	  0.0000	 
  3.3750	   5.6250	  0.0000	 
  3.3750	   5.8125	  0.0000	 
  3.3750	   6.0000	  0.0000	 
  3.3750	   6.1875	  0.0000	 
  3.3750	   6.3750	  0.0000	 
  3.3750	   6.5625	  0.0000	 
  3.3750	   6.7500	  0.0000	 
  3.3750	   6.9375	  0.0000	 
  3.3750	   7.1250	  0.0000	 
  3.3750	   7.3125	  0.0000	 
  3.3750	   7.5000	  0.0000	 
  3.3750	   7.6875	  0.0000	 
  3.6000	   4.5600	  0.0000	 
  3.6000	   4.7200	  0.0000	 
  3.6000	   4.8800	  0.0000	 
  3.6000	   5.0400	  0.0000	 
  3.6000	   5.2000	  0.0000	 
  3.6000	   5.3600	  0.0000	 
  3.6000	   5.5200	  0.0000	 
  3.6000	   5.6800	  0.0000	 
  3.6000	   5.8400	  0.0000	 
  3.6000	   6.0000	  0.0000	 
  3.6000	   6.1600	  0.0000	 
  3.6000	   6.3200	  0.0000	 
  3.6000	   6.4800	  0.0000	 
  3.6000	   6.6400	  0.0000	 
  3.6000	   6.8000	  0.0000	 
  3.6000	   6.9600	  0.0000	 
  3.6000	   7.1200	  0.0000	 
  3.6000	   7.2800	  0.0000	 
  3.6000	   7.4400	  0.0000	 
  3.8250	   4.8075	  0.0000	 
  3.8250	   4.9400	  0.0000	 
  3.8250	   5.0725	  0.0000	 
  3.8250	   5.2050	  0.0000	 
  3.8250	   5.3375	  0.0000	 
  3.8250	   5.4700	  0.0000	 
  3.8250	   5.6025	  0.0000	 
[...]
POINT_DATA 	    1451 
VECTORS U float 
 50.0000	   0.0000	   0.0000	
 50.0000	   0.0000	   0.0000	
 50.0000	   0.0000	   0.0000	
 50.0000	   0.0000	   0.0000	
 50.0000	  -0.0000	   0.0000	
 50.0000	  -0.0000	   0.0000	
 50.0000	   0.0000	   0.0000	
 50.0000	  -0.0000	   0.0000	
 50.0000	  -0.0000	   0.0000	
 50.0000	   0.0000	   0.0000	
 50.0000	  -0.0000	   0.0000	
 50.0000	  -0.0000	   0.0000	
 50.0000	   0.0000	   0.0000	
 50.0000	   0.0000	   0.0000	
 50.0000	  -0.0000	   0.0000	
 50.0000	  -0.0000	   0.0000	
 50.0000	   0.0000	   0.0000	
 50.0000	   0.0000	   0.0000	
 50.0000	  -0.0000	   0.0000	
 49.2279	   5.8881	   0.0000	
 50.2316	   5.2677	   0.0000	
 50.1993	   8.3483	   0.0000	
 49.9086	  16.4901	   0.0000	
 49.9546	   9.5111	   0.0000	
 49.9170	  14.9331	   0.0000	
 49.6117	  17.1124	   0.0000	
 49.3915	  21.3273	   0.0000	
 49.7138	  24.4916	   0.0000	
 49.7972	  26.2329	   0.0000	
 49.9376	  26.5410	   0.0000	
 50.5174	  25.3480	   0.0000	
 50.1765	  22.3735	   0.0000	
 50.0494	  21.3473	   0.0000	
 50.2934	  21.0610	   0.0000	
 50.0273	  13.4468	   0.0000	
 49.9213	  15.9001	   0.0000	
 49.3855	  13.4011	   0.0000	
 50.4136	  14.0041	   0.0000	
 50.8683	  10.8279	   0.0000	
 47.1318	  14.5338	   0.0000	
 43.5814	  28.3978	   0.0000	
 55.5989	  22.0402	   0.0000	
 45.8806	  27.3451	   0.0000	
 48.3846	  33.2436	   0.0000	
 46.5428	  41.9334	   0.0000	
 47.1937	  49.8765	   0.0000	
 48.4436	  54.2067	   0.0000	
 49.4626	  55.8108	   0.0000	
 50.0147	  55.6230	   0.0000	
 51.2309	  55.7821	   0.0000	
 53.0324	  50.1264	   0.0000	
 50.5043	  41.8547	   0.0000	
 50.0331	  40.3337	   0.0000	
 55.5090	  38.4075	   0.0000	
 48.0819	  28.4392	   0.0000	
 52.5763	  28.6486	   0.0000	
 49.9010	  29.4242	   0.0000	
 47.6076	  16.8352	   0.0000	
 39.5219	  37.0859	   0.0000	
 51.2527	  33.7446	   0.0000	
 49.8718	  40.4050	   0.0000	
 43.7603	  45.2571	   0.0000	
 43.7497	  55.8812	   0.0000	
 43.2274	  64.6008	   0.0000	
 45.3703	  68.9728	   0.0000	
 47.5373	  72.1500	   0.0000	
 47.6279	  75.7171	   0.0000	
 50.3184	  80.9956	   0.0000	
 51.1475	  79.2226	   0.0000	
 55.1257	  80.5143	   0.0000	
 56.0121	  72.9563	   0.0000	
 52.0861	  60.7763	   0.0000	
 53.4030	  56.3016	   0.0000	
 55.9632	  56.3422	   0.0000	
 51.2968	  45.7992	   0.0000	
 46.8637	  43.3077	   0.0000	
 28.7150	  40.7695	   0.0000	
 44.5178	  43.2148	   0.0000	
 50.3841	  49.2324	   0.0000	
 44.3217	  59.5676	   0.0000	
 39.2426	  58.0670	   0.0000	
 40.3252	  65.0299	   0.0000	
 41.3771	  68.2680	   0.0000	
 44.2684	  71.8429	   0.0000	
 46.3928	  73.9750	   0.0000	
 47.4873	  74.4716	   0.0000	
 47.3951	  74.3273	   0.0000	
 51.4070	  81.6871	   0.0000	
 53.8297	  80.1972	   0.0000	
 58.7594	  82.6686	   0.0000	
 58.9725	  76.0054	   0.0000	
 54.5074	  74.0217	   0.0000	
 56.1459	  73.7485	   0.0000	
 54.7444	  73.5326	   0.0000	
 56.0380	  60.6910	   0.0000	
 36.7310	  49.3620	   0.0000	
 45.0668	  59.2607	   0.0000	
 41.5201	  69.3021	   0.0000	
 46.6590	  68.8422	   0.0000	
 37.2863	  65.8216	   0.0000	
 39.6072	  66.4396	   0.0000	
 40.4811	  68.3279	   0.0000	
 43.7235	  69.3164	   0.0000	
 45.8628	  70.6256	   0.0000	
 46.7642	  72.0383	   0.0000	
 48.0373	  73.4402	   0.0000	
 47.2088	  71.7521	   0.0000	
 53.7492	  80.3259	   0.0000	
 56.5876	  79.0795	   0.0000	
 61.2716	  82.5840	   0.0000	
 52.2477	  84.8161	   0.0000	
 54.4951	  88.7645	   0.0000	
 55.5945	  91.0070	   0.0000	
 63.1864	  95.0914	   0.0000	
 35.2361	  66.0468	   0.0000	
 41.4040	  78.6530	   0.0000	
 44.2063	  74.6422	   0.0000	
 45.4529	  77.5312	   0.0000	
 37.8927	  71.1273	   0.0000	
 39.2022	  72.5176	   0.0000	
 40.8954	  71.6353	   0.0000	
 43.2499	  73.1758	   0.0000	
 45.5191	  74.5697	   0.0000	
 45.3149	  77.1539	   0.0000	
 46.9385	  80.3887	   0.0000	
 48.3063	  82.0991	   0.0000	
 48.0762	  80.0029	   0.0000	
 56.3598	  88.6168	   0.0000	
 58.2306	  87.2308	   0.0000	
 53.4822	  96.5631	   0.0000	
 50.8679	  96.8925	   0.0000	
 53.3236	 104.0527	   0.0000	
 49.8953	 112.3704	   0.0000	
 32.8474	  66.2415	   0.0000	
 45.3607	  70.1062	   0.0000	
 43.4005	  69.6415	   0.0000	
 45.5231	  71.1408	   0.0000	
 37.5431	  67.9658	   0.0000	
 40.3630	  66.9316	   0.0000	
 40.1913	  68.3504	   0.0000	
 42.6937	  70.5776	   0.0000	
 43.8549	  73.7885	   0.0000	
 44.7548	  75.1971	   0.0000	
 45.3933	  75.8026	   0.0000	
 46.9370	  79.0233	   0.0000	
 49.5793	  80.6761	   0.0000	
 49.8009	  77.1576	   0.0000	
 58.5524	  84.9876	   0.0000	
 51.2153	  87.1728	   0.0000	
 51.3574	  91.2458	   0.0000	
 48.2061	  92.8689	   0.0000	
 46.6519	 104.4732	   0.0000	
 38.5459	  60.6009	   0.0000	
 45.0073	  66.8388	   0.0000	
 43.0208	  65.8500	   0.0000	
 43.6009	  70.9040	   0.0000	
 39.0406	  65.7199	   0.0000	
 39.2640	  67.7650	   0.0000	
 39.4262	  69.5127	   0.0000	
 40.9611	  72.6763	   0.0000	
 43.0494	  74.7815	   0.0000	
 43.6386	  76.6475	   0.0000	
 45.1384	  78.4923	   0.0000	
 44.7808	  78.4225	   0.0000	
 48.0109	  81.9606	   0.0000	
 52.3336	  82.2869	   0.0000	
 51.4593	  77.3691	   0.0000	
 53.2331	  88.6814	   0.0000	
 49.6798	  86.4017	   0.0000	
 49.3460	  88.8597	   0.0000	
 40.5553	  95.7543	   0.0000	
 39.3246	  58.7597	   0.0000	
 44.1587	  64.6597	   0.0000	
 39.9958	  66.4614	   0.0000	
 44.6047	  68.2565	   0.0000	
 37.6691	  66.5918	   0.0000	
 38.3766	  68.5984	   0.0000	
 37.6921	  71.0553	   0.0000	
 39.9807	  73.4093	   0.0000	
 41.7897	  75.7180	   0.0000	
 42.0691	  78.2504	   0.0000	
 44.0994	  80.7473	   0.0000	
 45.0300	  82.0861	   0.0000	
 45.2368	  81.5253	   0.0000	
 50.9813	  83.7935	   0.0000	
 55.4150	  83.0429	   0.0000	
 45.5923	  82.1680	   0.0000	
 52.7114	  90.0241	   0.0000	
 49.2864	  87.3262	   0.0000	
 41.7467	  93.3654	   0.0000	
 38.6929	  59.0070	   0.0000	
 40.5179	  66.2643	   0.0000	
 41.3371	  64.8187	   0.0000	
 42.0892	  69.3063	   0.0000	
 36.4531	  68.1343	   0.0000	
 36.6411	  70.5554	   0.0000	
 36.5500	  72.4411	   0.0000	
 38.7206	  74.8386	   0.0000	
 40.2745	  77.3432	   0.0000	
 40.8511	  79.0781	   0.0000	
 42.6037	  80.2153	   0.0000	
 43.8119	  82.0575	   0.0000	
 45.7879	  83.2902	   0.0000	
 48.0899	  80.8265	   0.0000	
 53.9141	  82.4867	   0.0000	
 51.4036	  85.7344	   0.0000	
 42.8182	  84.0293	   0.0000	
 53.3722	  90.4928	   0.0000	
 44.1868	  91.9101	   0.0000	
 35.3785	  61.2746	   0.0000	
 42.7029	  64.0315	   0.0000	
 38.1565	  64.1530	   0.0000	
 40.0747	  68.6301	   0.0000	
 34.5732	  68.1482	   0.0000	
 35.2110	  70.7198	   0.0000	
 35.6186	  71.9657	   0.0000	
 37.2381	  74.0281	   0.0000	
 38.7936	  76.4408	   0.0000	
 39.3446	  78.6863	   0.0000	
 42.3174	  80.6331	   0.0000	
 42.2379	  80.5787	   0.0000	
 44.7335	  82.3319	   0.0000	
 49.3661	  81.5644	   0.0000	
 50.0173	  79.3996	   0.0000	
 50.3103	  85.4724	   0.0000	
 48.4196	  88.4713	   0.0000	
 41.9907	  87.0947	   0.0000	
 50.0866	  94.1752	   0.0000	
 39.9008	  60.7049	   0.0000	
 39.0142	  64.6685	   0.0000	
 35.8150	  65.8569	   0.0000	
 36.7368	  70.7755	   0.0000	
 32.8012	  71.1437	   0.0000	
 34.4568	  72.8791	   0.0000	
 34.4583	  74.4238	   0.0000	
 35.6265	  76.8590	   0.0000	
 36.9897	  79.4450	   0.0000	
 36.1115	  83.4361	   0.0000	
 40.5459	  87.2034	   0.0000	
 42.5554	  88.3430	   0.0000	
 43.0229	  87.3845	   0.0000	
 48.2130	  86.9035	   0.0000	
 51.3404	  86.9280	   0.0000	
 44.9823	  89.4843	   0.0000	
 46.2405	  96.0902	   0.0000	
 50.1196	  94.1248	   0.0000	
 37.5716	  93.2705	   0.0000	
 36.3033	  57.5481	   0.0000	
 34.5248	  59.8618	   0.0000	
 31.9449	  62.3339	   0.0000	
 33.3615	  68.3280	   0.0000	
 31.5990	  69.5529	   0.0000	
 33.3016	  71.9808	   0.0000	
 31.9619	  74.7373	   0.0000	
 33.5884	  78.1266	   0.0000	
 33.1960	  82.6853	   0.0000	
 37.1699	  81.6145	   0.0000	
 37.7455	  79.9046	   0.0000	
 41.1072	  82.5740	   0.0000	
 44.2140	  83.6768	   0.0000	
 46.8919	  80.9935	   0.0000	
 48.6775	  82.8163	   0.0000	
 46.5471	  88.0424	   0.0000	
 39.4663	  91.6143	   0.0000	
 50.8932	  88.4323	   0.0000	
 52.7622	  80.9652	   0.0000	
 31.4821	  60.8366	   0.0000	
 28.9228	  63.7180	   0.0000	
 26.9088	  67.1563	   0.0000	
 31.2392	  71.2385	   0.0000	
 29.4047	  72.3306	   0.0000	
 29.3903	  76.7455	   0.0000	
 29.4424	  79.5393	   0.0000	
 28.7780	  83.2909	   0.0000	
 34.8422	  82.6250	   0.0000	
 35.5250	  82.7997	   0.0000	
 40.0211	  85.2506	   0.0000	
 37.1935	  82.8837	   0.0000	
 42.5730	  85.2919	   0.0000	
 48.0449	  84.0215	   0.0000	
 43.5118	  86.5617	   0.0000	
 42.6723	  94.1552	   0.0000	
 41.1535	  99.2376	   0.0000	
 46.7823	  91.0018	   0.0000	
 58.5913	  81.3859	   0.0000	
 25.8017	  58.5121	   0.0000	
 22.0393	  64.0490	   0.0000	
 26.9977	  66.9024	   0.0000	
 28.4799	  70.7818	   0.0000	
 24.2309	  73.4098	   0.0000	
 26.6771	  76.9847	   0.0000	
 25.7666	  79.2811	   0.0000	
 32.4531	  77.0903	   0.0000	
 35.6486	  75.5831	   0.0000	
 27.7279	  82.1789	   0.0000	
 35.8520	  89.2092	   0.0000	
 39.7662	  92.6381	   0.0000	
 39.8065	  90.6373	   0.0000	
 44.2306	  92.1938	   0.0000	
 43.1261	  98.2659	   0.0000	
 34.1258	 104.9833	   0.0000	
 39.3973	 105.3743	   0.0000	
 54.5191	  93.7877	   0.0000	
 55.0876	  82.4067	   0.0000	
 20.5946	  53.1062	   0.0000	
 23.4384	  55.3906	   0.0000	
 10.5430	  66.1418	   0.0000	
 18.8248	  81.2055	   0.0000	
 21.2558	  86.9683	   0.0000	
 23.5031	  90.7535	   0.0000	
 31.7349	  89.8261	   0.0000	
 35.3799	  88.7235	   0.0000	
 25.2749	  96.1246	   0.0000	
 31.2915	  93.9050	   0.0000	
 26.8243	  90.9576	   0.0000	
 32.0819	  98.2957	   0.0000	
 42.6694	 102.7968	   0.0000	
 37.5881	 101.2643	   0.0000	
 36.0879	 108.0484	   0.0000	
 34.0549	 112.0594	   0.0000	
 49.1830	 100.3198	   0.0000	
 44.9427	  87.7149	   0.0000	
 65.9507	  73.9089	   0.0000	
  1.3734	  44.9466	   0.0000	
 -7.8251	  53.0835	   0.0000	
  8.0570	  62.1814	   0.0000	
 14.2356	  67.6302	   0.0000	
 17.4011	  71.0554	   0.0000	
 30.0997	  73.1649	   0.0000	
 34.2797	  73.3683	   0.0000	
 19.5726	  79.6147	   0.0000	
 28.9209	  79.8014	   0.0000	
 21.2743	  85.1906	   0.0000	
 31.2694	  92.4295	   0.0000	
 17.4705	  91.9882	   0.0000	
 28.0394	 100.5603	   0.0000	
 42.9402	 105.3382	   0.0000	
 25.3862	 114.5448	   0.0000	
 34.1105	 122.0153	   0.0000	
 32.1286	 117.4698	   0.0000	
 65.6137	 110.3060	   0.0000	
 74.0485	  90.6833	   0.0000	
 -8.8137	  64.4604	   0.0000	
  2.4880	  71.9147	   0.0000	
  7.8477	  77.3524	   0.0000	
 17.3722	  80.9398	   0.0000	
 27.3495	  85.6207	   0.0000	
 28.7681	  86.4250	   0.0000	
 11.0952	  95.3426	   0.0000	
 21.5288	  99.5471	   0.0000	
 16.1207	 106.7772	   0.0000	
 12.7493	 111.7524	   0.0000	
 14.9015	 116.1942	   0.0000	
 21.2414	 124.3420	   0.0000	
  3.3172	 129.3981	   0.0000	
 20.3397	 135.9140	   0.0000	
 15.2375	 149.1726	   0.0000	
  9.3683	 160.7799	   0.0000	
 25.2369	 155.7154	   0.0000	
 52.5947	 140.3752	   0.0000	
 66.2554	 115.5044	   0.0000	
 -1.8300	  26.8566	   0.0000	
  3.8054	  31.4516	   0.0000	
 10.0695	  36.2792	   0.0000	
 22.6364	  42.9351	   0.0000	
  0.4783	  51.5540	   0.0000	
  0.4403	  52.2645	   0.0000	
  8.5071	  56.5362	   0.0000	
  0.3680	  60.3717	   0.0000	
  6.1271	  63.5313	   0.0000	
  0.4358	  66.3952	   0.0000	
  5.7892	  69.2663	   0.0000	
  0.4950	  72.2010	   0.0000	
  6.6560	  75.4898	   0.0000	
 -0.8464	  78.1179	   0.0000	
  0.0009	  77.5975	   0.0000	
 -3.7512	  82.2461	   0.0000	
 -0.1827	  81.3803	   0.0000	
 21.4589	  77.4929	   0.0000	
 53.5550	  69.2588	   0.0000	
 -0.0000	  -0.0000	   0.0000	
  0.0000	   0.0000	   0.0000	
 -0.0000	   0.0000	   0.0000	
 -0.0000	   0.0000	   0.0000	
  0.0000	  -0.0000	   0.0000	
 -0.0000	   0.0000	   0.0000	
  0.0000	   0.0000	   0.0000	
  0.0000	  -0.0000	   0.0000	
 -0.0000	  -0.0000	   0.0000	
  0.0000	   0.0000	   0.0000	
  0.0000	   0.0000	   0.0000	
  0.0000	  -0.0000	   0.0000	
 -0.0000	   0.0000	   0.0000	
 -0.0000	   0.0000	   0.0000	
 -0.0000	  -0.0000	   0.0000	
 -0.0000	  -0.0000	   0.0000	
  0.0000	  -0.0000	   0.0000	
 -0.0000	  -0.0000	   0.0000	
  0.0000	   0.0000	   0.0000	
 50.0000	  50.0000	   0.0000	
 50.0000	  -0.0000	   0.0000	
 68.1780	  50.1267	   0.0000	
 49.9878	  15.2913	   0.0000	
 85.5823	  50.3153	   0.0000	
 48.6085	  30.4487	   0.0000	
 83.5923	  54.8121	   0.0000	
 49.3101	  46.0046	   0.0000	
 84.9601	  57.9630	   0.0000	
 48.2725	  61.1052	   0.0000	
 59.9025	  76.7828	   0.0000	
 46.1225	  75.8658	   0.0000	
 50.8828	  80.6547	   0.0000	
 80.0621	 105.1792	   0.0000	
 47.9805	  78.3958	   0.0000	
 65.0495	  91.9462	   0.0000	
 44.1763	  76.4790	   0.0000	
 59.5682	  85.3419	   0.0000	
 49.0044	  69.9135	   0.0000	
 52.9604	  78.9662	   0.0000	
 47.8731	  67.6936	   0.0000	
 53.9067	  77.7580	   0.0000	
 44.8397	  66.1819	   0.0000	
 56.8035	  77.2180	   0.0000	
 39.2844	  65.5471	   0.0000	
 64.8135	  79.0758	   0.0000	
 42.3068	  59.8476	   0.0000	
 48.8204	  68.6172	   0.0000	
 35.6477	  57.5029	   0.0000	
 62.8331	  71.4807	   0.0000	
 27.0009	  55.4734	   0.0000	
 68.9089	  69.7976	   0.0000	
 17.7751	  52.2634	   0.0000	
 68.1703	  63.7368	   0.0000	
 21.4040	  39.6362	   0.0000	
 78.9265	  62.0485	   0.0000	
-25.6603	  53.9422	   0.0000	
117.2036	  74.7070	   0.0000	
 -7.6102	  21.2245	   0.0000	
 99.4150	  44.6842	   0.0000	
 -0.0000	   0.0000	   0.0000	
 -0.0000	  -0.0000	   0.0000	
 50.2243	  50.0000	   0.0000	
 83.6048	 149.7659	   0.0000	
 50.2956	  48.9622	   0.0000	
 50.4521	 133.9446	   0.0000	
 48.0560	  48.3142	   0.0000	
 36.6284	 119.5010	   0.0000	
 47.1253	  47.0106	   0.0000	
 28.6380	 107.5960	   0.0000	
 44.7314	  46.5624	   0.0000	
 28.7283	 101.9050	   0.0000	
 42.9173	  45.8185	   0.0000	
 28.7997	  97.4495	   0.0000	
 43.6741	  44.8547	   0.0000	
 28.3033	  93.6858	   0.0000	
 44.4950	  43.5717	   0.0000	
 29.4355	  90.3753	   0.0000	
 43.6388	  42.8892	   0.0000	
 31.9532	  87.4097	   0.0000	
 40.0794	  43.2737	   0.0000	
 35.4766	  84.2344	   0.0000	
 40.1227	  41.8906	   0.0000	
 40.2262	  81.5317	   0.0000	
 47.0731	  37.6947	   0.0000	
 29.1968	  72.7357	   0.0000	
 41.7701	  37.9390	   0.0000	
 40.5686	  72.0197	   0.0000	
 40.5323	  35.1891	   0.0000	
 43.4973	  66.7270	   0.0000	
 37.9993	  31.4963	   0.0000	
 44.4002	  60.9526	   0.0000	
 41.6981	  25.5327	   0.0000	
 50.0223	  53.2447	   0.0000	
 19.2369	  25.7308	   0.0000	
 72.1652	  49.3247	   0.0000	
 17.6807	  17.1074	   0.0000	
 68.9290	  35.2761	   0.0000	
 33.9068	   2.0909	   0.0000	
 58.6953	  19.1534	   0.0000	
 22.9797	   0.6035	   0.0000	
  0.2484	  -1.3986	   0.0000	
 -0.0000	   0.0000	   0.0000	
 -0.0000	  -0.0000	   0.0000	
 60.2467	  50.0000	   0.0000	
-40.5569	  69.9017	   0.0000	
 54.4806	  50.8533	   0.0000	
 -9.7928	  71.0108	   0.0000	
 51.5545	  51.2190	   0.0000	
  4.3725	  70.6983	   0.0000	
 48.4852	  51.8266	   0.0000	
 11.5355	  69.9320	   0.0000	
 48.2468	  52.0403	   0.0000	
 13.5619	  68.4956	   0.0000	
 49.1289	  52.2895	   0.0000	
 14.6917	  67.1565	   0.0000	
 48.3881	  52.8762	   0.0000	
 15.7858	  65.2858	   0.0000	
 47.4975	  52.7405	   0.0000	
 17.9032	  63.2427	   0.0000	
 47.2445	  53.3303	   0.0000	
 18.9465	  61.2944	   0.0000	
 46.2097	  53.8801	   0.0000	
 21.8485	  60.1560	   0.0000	
 52.9745	  53.3919	   0.0000	
 15.7056	  58.1254	   0.0000	
 52.7670	  53.5406	   0.0000	
 17.9225	  54.7978	   0.0000	
 55.8422	  53.3430	   0.0000	
 19.8643	  51.5023	   0.0000	
 57.6959	  53.5998	   0.0000	
 12.0076	  47.2061	   0.0000	
 61.6092	  53.2977	   0.0000	
 16.9021	  43.9185	   0.0000	
 60.4691	  49.9205	   0.0000	
 23.4743	  37.2176	   0.0000	
 58.1570	  48.1786	   0.0000	
 26.3455	  32.6157	   0.0000	
 62.3145	  47.7695	   0.0000	
 28.3345	  28.7285	   0.0000	
 58.5365	  46.1677	   0.0000	
  4.0713	  28.4683	   0.0000	
 36.8577	  44.9515	   0.0000	
  3.8451	  33.5114	   0.0000	
 26.7676	  41.7997	   0.0000	
 -0.7314	  35.8151	   0.0000	
 43.8443	  50.0000	   0.0000	
 11.2214	  55.7979	   0.0000	
 47.2260	  51.4332	   0.0000	
 -2.1003	  60.7115	   0.0000	
 46.4107	  51.9533	   0.0000	
  1.2859	  61.2861	   0.0000	
 44.7117	  52.0792	   0.0000	
  5.3662	  60.6394	   0.0000	
 44.1895	  52.4918	   0.0000	
  6.7554	  60.4827	   0.0000	
 44.1928	  53.0577	   0.0000	
  7.8255	  60.3415	   0.0000	
 42.6446	  53.2394	   0.0000	
 10.2718	  59.5734	   0.0000	
 43.3344	  54.1675	   0.0000	
  8.7376	  60.4589	   0.0000	
 44.1556	  54.6839	   0.0000	
 11.5861	  59.5129	   0.0000	
 43.7508	  55.5073	   0.0000	
 13.4469	  59.1389	   0.0000	
 44.6277	  56.8994	   0.0000	
 14.5224	  59.3402	   0.0000	
 46.1169	  58.0691	   0.0000	
 11.0478	  59.5430	   0.0000	
 48.5618	  60.0924	   0.0000	
  5.2443	  61.3033	   0.0000	
 48.6254	  62.0767	   0.0000	
 11.1710	  61.1700	   0.0000	
 49.5569	  63.5514	   0.0000	
  9.8374	  61.0107	   0.0000	
 57.1750	  68.4430	   0.0000	
  7.0387	  62.1989	   0.0000	
 53.4784	  70.2010	   0.0000	
 11.2432	  60.6910	   0.0000	
 51.2341	  72.6106	   0.0000	
 15.5658	  58.7827	   0.0000	
 51.4624	  75.2229	   0.0000	
 19.9267	  56.3347	   0.0000	
 44.8513	  78.4101	   0.0000	
 19.5758	  61.7856	   0.0000	
 25.9113	  77.2793	   0.0000	
 19.9813	  65.8792	   0.0000	
 47.2024	  50.0000	   0.0000	
 -0.3897	  45.8824	   0.0000	
 46.4415	  49.6209	   0.0000	
  2.8992	  45.2313	   0.0000	
 45.3078	  49.3320	   0.0000	
  5.4852	  44.6342	   0.0000	
 43.6815	  48.8024	   0.0000	
  8.1557	  44.0374	   0.0000	
 43.7675	  49.1512	   0.0000	
  6.5932	  45.8923	   0.0000	
 43.8046	  49.5662	   0.0000	
  5.6680	  47.8294	   0.0000	
 42.5630	  49.2157	   0.0000	
  7.2918	  48.0689	   0.0000	
 42.4062	  49.5811	   0.0000	
  8.4469	  49.0043	   0.0000	
 41.7094	  49.6455	   0.0000	
 10.1382	  49.3637	   0.0000	
 40.9394	  49.4696	   0.0000	
 11.1696	  49.9223	   0.0000	
 42.6761	  50.7605	   0.0000	
 10.2578	  51.5710	   0.0000	
 38.2131	  49.3890	   0.0000	
 15.0791	  50.2258	   0.0000	
 39.8129	  51.0986	   0.0000	
 14.6676	  51.3054	   0.0000	
 41.8690	  52.8840	   0.0000	
 11.8876	  53.7291	   0.0000	
 41.2475	  54.8015	   0.0000	
 14.5961	  55.5509	   0.0000	
 40.8961	  56.0215	   0.0000	
 13.3345	  57.0520	   0.0000	
 40.5831	  58.9494	   0.0000	
 13.8666	  59.2120	   0.0000	
 41.7692	  64.0135	   0.0000	
 13.9253	  61.7005	   0.0000	
 37.8351	  66.5363	   0.0000	
 20.4615	  61.2192	   0.0000	
 43.3070	  72.3627	   0.0000	
 18.6841	  63.5130	   0.0000	
 29.7263	  71.2867	   0.0000	
 35.7350	  58.8420	   0.0000	
 52.7452	  50.0000	   0.0000	
  1.0571	  31.8207	   0.0000	
 49.8506	  49.4694	   0.0000	
  2.5690	  33.0850	   0.0000	
 46.8122	  48.9008	   0.0000	
  4.0429	  34.3624	   0.0000	
 45.3985	  48.7417	   0.0000	
  5.4283	  35.6335	   0.0000	
 45.4437	  49.1223	   0.0000	
  7.5435	  36.6553	   0.0000	
 45.8600	  49.7772	   0.0000	
  8.1244	  38.5281	   0.0000	
 42.9973	  48.0502	   0.0000	
  9.6518	  39.2059	   0.0000	
 42.2393	  47.9157	   0.0000	
 10.4632	  39.7467	   0.0000	
 42.0584	  48.1851	   0.0000	
 11.2175	  40.6417	   0.0000	
 41.3150	  48.3031	   0.0000	
 12.1431	  42.1697	   0.0000	
 40.7761	  48.3733	   0.0000	
 14.1749	  42.9637	   0.0000	
 40.1914	  48.4049	   0.0000	
 14.7308	  44.3797	   0.0000	
 39.8954	  48.8725	   0.0000	
 15.6617	  45.8919	   0.0000	
 39.6078	  49.5719	   0.0000	
 15.6165	  47.8777	   0.0000	
 39.2392	  48.6619	   0.0000	
 15.6381	  48.1110	   0.0000	
 39.4709	  49.5493	   0.0000	
 15.9211	  49.0506	   0.0000	
 35.1105	  48.4716	   0.0000	
 25.0755	  46.6270	   0.0000	
 38.8989	  53.0176	   0.0000	
 16.5606	  55.1514	   0.0000	
 34.8935	  52.3843	   0.0000	
 21.7169	  54.4049	   0.0000	
 32.2820	  53.6020	   0.0000	
 21.8999	  57.5499	   0.0000	
 34.5607	  59.2428	   0.0000	
 22.6169	  58.9503	   0.0000	
  0.0000	   0.0000	   0.0000	
  0.0000	   0.0000	   0.0000	
 -0.0000	   0.0000	   0.0000	
  0.0000	  -0.0000	   0.0000	
 -0.0000	   0.0000	   0.0000	
  0.0000	   0.0000	   0.0000	
 -0.0000	   0.0000	   0.0000	
 -0.0000	  -0.0000	   0.0000	
 -0.0000	  -0.0000	   0.0000	
 -0.0000	   0.0000	   0.0000	
 -0.0000	  -0.0000	   0.0000	
 -0.0000	  -0.0000	   0.0000	
 -0.0000	   0.0000	   0.0000	
 -0.0000	  -0.0000	   0.0000	