# vtk DataFile Version 3.0 
Results 
ASCII 
DATASET UNSTRUCTURED_GRID 
POINTS 	    1451 float 
  0.0000	   0.6000	  0.0000	 
  0.0000	   1.2000	  0.0000	 
  0.0000	   1.8000	  0.0000	 
  0.0000	   2.4000	  0.0000	 
  0.0000	   3.0000	  0.0000	 
  0.0000	   3.6000	  0.0000	 
  0.0000	   4.2000	  0.0000	 
  0.0000	   4.8000	  0.0000	 
  0.0000	   5.4000	  0.0000	 
  0.0000	   6.0000	  0.0000	 
  0.0000	   6.6000	  0.0000	 
  0.0000	   7.2000	  0.0000	 
  0.0000	   7.8000	  0.0000	 
  0.0000	   8.4000	  0.0000	 
  0.0000	   9.0000	  0.0000	 
  0.0000	   9.6000	  0.0000	 
  0.0000	  10.2000	  0.0000	 
  0.0000	  10.8000	  0.0000	 
  0.0000	  11.4000	  0.0000	 
  0.2250	   0.8475	  0.0000	 
  0.2250	   1.4200	  0.0000	 
  0.2250	   1.9925	  0.0000	 
  0.2250	   2.5650	  0.0000	 
  0.2250	   3.1375	  0.0000	 
  0.2250	   3.7100	  0.0000	 
  0.2250	   4.2825	  0.0000	 
  0.2250	   4.8550	  0.0000	 
  0.2250	   5.4275	  0.0000	 
  0.2250	   6.0000	  0.0000	 
  0.2250	   6.5725	  0.0000	 
  0.2250	   7.1450	  0.0000	 
  0.2250	   7.7175	  0.0000	 
  0.2250	   8.2900	  0.0000	 
  0.2250	   8.8625	  0.0000	 
  0.2250	   9.4350	  0.0000	 
  0.2250	  10.0075	  0.0000	 
  0.2250	  10.5800	  0.0000	 
  0.2250	  11.1525	  0.0000	 
  0.4500	   1.0950	  0.0000	 
  0.4500	   1.6400	  0.0000	 
  0.4500	   2.1850	  0.0000	 
  0.4500	   2.7300	  0.0000	 
  0.4500	   3.2750	  0.0000	 
  0.4500	   3.8200	  0.0000	 
  0.4500	   4.3650	  0.0000	 
  0.4500	   4.9100	  0.0000	 
  0.4500	   5.4550	  0.0000	 
  0.4500	   6.0000	  0.0000	 
  0.4500	   6.5450	  0.0000	 
  0.4500	   7.0900	  0.0000	 
  0.4500	   7.6350	  0.0000	 
  0.4500	   8.1800	  0.0000	 
  0.4500	   8.7250	  0.0000	 
  0.4500	   9.2700	  0.0000	 
  0.4500	   9.8150	  0.0000	 
  0.4500	  10.3600	  0.0000	 
  0.4500	  10.9050	  0.0000	 
  0.6750	   1.3425	  0.0000	 
  0.6750	   1.8600	  0.0000	 
  0.6750	   2.3775	  0.0000	 
  0.6750	   2.8950	  0.0000	 
  0.6750	   3.4125	  0.0000	 
  0.6750	   3.9300	  0.0000	 
  0.6750	   4.4475	  0.0000	 
  0.6750	   4.9650	  0.0000	 
  0.6750	   5.4825	  0.0000	 
  0.6750	   6.0000	  0.0000	 
  0.6750	   6.5175	  0.0000	 
  0.6750	   7.0350	  0.0000	 
  0.6750	   7.5525	  0.0000	 
  0.6750	   8.0700	  0.0000	 
  0.6750	   8.5875	  0.0000	 
  0.6750	   9.1050	  0.0000	 
  0.6750	   9.6225	  0.0000	 
  0.6750	  10.1400	  0.0000	 
  0.6750	  10.6575	  0.0000	 
  0.9000	   1.5900	  0.0000	 
  0.9000	   2.0800	  0.0000	 
  0.9000	   2.5700	  0.0000	 
  0.9000	   3.0600	  0.0000	 
  0.9000	   3.5500	  0.0000	 
  0.9000	   4.0400	  0.0000	 
  0.9000	   4.5300	  0.0000	 
  0.9000	   5.0200	  0.0000	 
  0.9000	   5.5100	  0.0000	 
  0.9000	   6.0000	  0.0000	 
  0.9000	   6.4900	  0.0000	 
  0.9000	   6.9800	  0.0000	 
  0.9000	   7.4700	  0.0000	 
  0.9000	   7.9600	  0.0000	 
  0.9000	   8.4500	  0.0000	 
  0.9000	   8.9400	  0.0000	 
  0.9000	   9.4300	  0.0000	 
  0.9000	   9.9200	  0.0000	 
  0.9000	  10.4100	  0.0000	 
  1.1250	   1.8375	  0.0000	 
  1.1250	   2.3000	  0.0000	 
  1.1250	   2.7625	  0.0000	 
  1.1250	   3.2250	  0.0000	 
  1.1250	   3.6875	  0.0000	 
  1.1250	   4.1500	  0.0000	 
  1.1250	   4.6125	  0.0000	 
  1.1250	   5.0750	  0.0000	 
  1.1250	   5.5375	  0.0000	 
  1.1250	   6.0000	  0.0000	 
  1.1250	   6.4625	  0.0000	 
  1.1250	   6.9250	  0.0000	 
  1.1250	   7.3875	  0.0000	 
  1.1250	   7.8500	  0.0000	 
  1.1250	   8.3125	  0.0000	 
  1.1250	   8.7750	  0.0000	 
  1.1250	   9.2375	  0.0000	 
  1.1250	   9.7000	  0.0000	 
  1.1250	  10.1625	  0.0000	 
  1.3500	   2.0850	  0.0000	 
  1.3500	   2.5200	  0.0000	 
  1.3500	   2.9550	  0.0000	 
  1.3500	   3.3900	  0.0000	 
  1.3500	   3.8250	  0.0000	 
  1.3500	   4.2600	  0.0000	 
  1.3500	   4.6950	  0.0000	 
  1.3500	   5.1300	  0.0000	 
  1.3500	   5.5650	  0.0000	 
  1.3500	   6.0000	  0.0000	 
  1.3500	   6.4350	  0.0000	 
  1.3500	   6.8700	  0.0000	 
  1.3500	   7.3050	  0.0000	 
  1.3500	   7.7400	  0.0000	 
  1.3500	   8.1750	  0.0000	 
  1.3500	   8.6100	  0.0000	 
  1.3500	   9.0450	  0.0000	 
  1.3500	   9.4800	  0.0000	 
  1.3500	   9.9150	  0.0000	 
  1.5750	   2.3325	  0.0000	 
  1.5750	   2.7400	  0.0000	 
  1.5750	   3.1475	  0.0000	 
  1.5750	   3.5550	  0.0000	 
  1.5750	   3.9625	  0.0000	 
  1.5750	   4.3700	  0.0000	 
  1.5750	   4.7775	  0.0000	 
  1.5750	   5.1850	  0.0000	 
  1.5750	   5.5925	  0.0000	 
  1.5750	   6.0000	  0.0000	 
  1.5750	   6.4075	  0.0000	 
  1.5750	   6.8150	  0.0000	 
  1.5750	   7.2225	  0.0000	 
  1.5750	   7.6300	  0.0000	 
  1.5750	   8.0375	  0.0000	 
  1.5750	   8.4450	  0.0000	 
  1.5750	   8.8525	  0.0000	 
  1.5750	   9.2600	  0.0000	 
  1.5750	   9.6675	  0.0000	 
  1.8000	   2.5800	  0.0000	 
  1.8000	   2.9600	  0.0000	 
  1.8000	   3.3400	  0.0000	 
  1.8000	   3.7200	  0.0000	 
  1.8000	   4.1000	  0.0000	 
  1.8000	   4.4800	  0.0000	 
  1.8000	   4.8600	  0.0000	 
  1.8000	   5.2400	  0.0000	 
  1.8000	   5.6200	  0.0000	 
  1.8000	   6.0000	  0.0000	 
  1.8000	   6.3800	  0.0000	 
  1.8000	   6.7600	  0.0000	 
  1.8000	   7.1400	  0.0000	 
  1.8000	   7.5200	  0.0000	 
  1.8000	   7.9000	  0.0000	 
  1.8000	   8.2800	  0.0000	 
  1.8000	   8.6600	  0.0000	 
  1.8000	   9.0400	  0.0000	 
  1.8000	   9.4200	  0.0000	 
  2.0250	   2.8275	  0.0000	 
  2.0250	   3.1800	  0.0000	 
  2.0250	   3.5325	  0.0000	 
  2.0250	   3.8850	  0.0000	 
  2.0250	   4.2375	  0.0000	 
  2.0250	   4.5900	  0.0000	 
  2.0250	   4.9425	  0.0000	 
  2.0250	   5.2950	  0.0000	 
  2.0250	   5.6475	  0.0000	 
  2.0250	   6.0000	  0.0000	 
  2.0250	   6.3525	  0.0000	 
  2.0250	   6.7050	  0.0000	 
  2.0250	   7.0575	  0.0000	 
  2.0250	   7.4100	  0.0000	 
  2.0250	   7.7625	  0.0000	 
  2.0250	   8.1150	  0.0000	 
  2.0250	   8.4675	  0.0000	 
  2.0250	   8.8200	  0.0000	 
  2.0250	   9.1725	  0.0000	 
  2.2500	   3.0750	  0.0000	 
  2.2500	   3.4000	  0.0000	 
  2.2500	   3.7250	  0.0000	 
  2.2500	   4.0500	  0.0000	 
  2.2500	   4.3750	  0.0000	 
  2.2500	   4.7000	  0.0000	 
  2.2500	   5.0250	  0.0000	 
  2.2500	   5.3500	  0.0000	 
  2.2500	   5.6750	  0.0000	 
  2.2500	   6.0000	  0.0000	 
  2.2500	   6.3250	  0.0000	 
  2.2500	   6.6500	  0.0000	 
  2.2500	   6.9750	  0.0000	 
  2.2500	   7.3000	  0.0000	 
  2.2500	   7.6250	  0.0000	 
  2.2500	   7.9500	  0.0000	 
  2.2500	   8.2750	  0.0000	 
  2.2500	   8.6000	  0.0000	 
  2.2500	   8.9250	  0.0000	 
  2.4750	   3.3225	  0.0000	 
  2.4750	   3.6200	  0.0000	 
  2.4750	   3.9175	  0.0000	 
  2.4750	   4.2150	  0.0000	 
  2.4750	   4.5125	  0.0000	 
  2.4750	   4.8100	  0.0000	 
  2.4750	   5.1075	  0.0000	 
  2.4750	   5.4050	  0.0000	 
  2.4750	   5.7025	  0.0000	 
  2.4750	   6.0000	  0.0000	 
  2.4750	   6.2975	  0.0000	 
  2.4750	   6.5950	  0.0000	 
  2.4750	   6.8925	  0.0000	 
  2.4750	   7.1900	  0.0000	 
  2.4750	   7.4875	  0.0000	 
  2.4750	   7.7850	  0.0000	 
  2.4750	   8.0825	  0.0000	 
  2.4750	   8.3800	  0.0000	 
  2.4750	   8.6775	  0.0000	 
  2.7000	   3.5700	  0.0000	 
  2.7000	   3.8400	  0.0000	 
  2.7000	   4.1100	  0.0000	 
  2.7000	   4.3800	  0.0000	 
  2.7000	   4.6500	  0.0000	 
  2.7000	   4.9200	  0.0000	 
  2.7000	   5.1900	  0.0000	 
  2.7000	   5.4600	  0.0000	 
  2.7000	   5.7300	  0.0000	 
  2.7000	   6.0000	  0.0000	 
  2.7000	   6.2700	  0.0000	 
  2.7000	   6.5400	  0.0000	 
  2.7000	   6.8100	  0.0000	 
  2.7000	   7.0800	  0.0000	 
  2.7000	   7.3500	  0.0000	 
  2.7000	   7.6200	  0.0000	 
  2.7000	   7.8900	  0.0000	 
  2.7000	   8.1600	  0.0000	 
  2.7000	   8.4300	  0.0000	 
  2.9250	   3.8175	  0.0000	 
  2.9250	   4.0600	  0.0000	 
  2.9250	   4.3025	  0.0000	 
  2.9250	   4.5450	  0.0000	 
  2.9250	   4.7875	  0.0000	 
  2.9250	   5.0300	  0.0000	 
  2.9250	   5.2725	  0.0000	 
  2.9250	   5.5150	  0.0000	 
  2.9250	   5.7575	  0.0000	 
  2.9250	   6.0000	  0.0000	 
  2.9250	   6.2425	  0.0000	 
  2.9250	   6.4850	  0.0000	 
  2.9250	   6.7275	  0.0000	 
  2.9250	   6.9700	  0.0000	 
  2.9250	   7.2125	  0.0000	 
  2.9250	   7.4550	  0.0000	 
  2.9250	   7.6975	  0.0000	 
  2.9250	   7.9400	  0.0000	 
  2.9250	   8.1825	  0.0000	 
  3.1500	   4.0650	  0.0000	 
  3.1500	   4.2800	  0.0000	 
  3.1500	   4.4950	  0.0000	 
  3.1500	   4.7100	  0.0000	 
  3.1500	   4.9250	  0.0000	 
  3.1500	   5.1400	  0.0000	 
  3.1500	   5.3550	  0.0000	 
  3.1500	   5.5700	  0.0000	 
  3.1500	   5.7850	  0.0000	 
  3.1500	   6.0000	  0.0000	 
  3.1500	   6.2150	  0.0000	 
  3.1500	   6.4300	  0.0000	 
  3.1500	   6.6450	  0.0000	 
  3.1500	   6.8600	  0.0000	 
  3.1500	   7.0750	  0.0000	 
  3.1500	   7.2900	  0.0000	 
  3.1500	   7.5050	  0.0000	 
  3.1500	   7.7200	  0.0000	 
  3.1500	   7.9350	  0.0000	 
  3.3750	   4.3125	  0.0000	 
  3.3750	   4.5000	  0.0000	 
  3.3750	   4.6875	  0.0000	 
  3.3750	   4.8750	  0.0000	 
  3.3750	   5.0625	  0.0000	 
  3.3750	   5.2500	  0.0000	 
  3.3750	   5.4375	  0.0000	 
  3.3750	   5.6250	  0.0000	 
  3.3750	   5.8125	  0.0000	 
  3.3750	   6.0000	  0.0000	 
  3.3750	   6.1875	  0.0000	 
  3.3750	   6.3750	  0.0000	 
  3.3750	   6.5625	  0.0000	 
  3.3750	   6.7500	  0.0000	 
  3.3750	   6.9375	  0.0000	 
  3.3750	   7.1250	  0.0000	 
  3.3750	   7.3125	  0.0000	 
  3.3750	   7.5000	  0.0000	 
  3.3750	   7.6875	  0.0000	 
  3.6000	   4.5600	  0.0000	 
  3.6000	   4.7200	  0.0000	 
  3.6000	   4.8800	  0.0000	 
  3.6000	   5.0400	  0.0000	 
  3.6000	   5.2000	  0.0000	 
  3.6000	   5.3600	  0.0000	 
  3.6000	   5.5200	  0.0000	 
  3.6000	   5.6800	  0.0000	 
  3.6000	   5.8400	  0.0000	 
  3.6000	   6.0000	  0.0000	 
  3.6000	   6.1600	  0.0000	 
  3.6000	   6.3200	  0.0000	 
  3.6000	   6.4800	  0.0000	 
  3.6000	   6.6400	  0.0000	 
  3.6000	   6.8000	  0.0000	 
  3.6000	   6.9600	  0.0000	 
  3.6000	   7.1200	  0.0000	 
  3.6000	   7.2800	  0.0000	 
  3.6000	   7.4400	  0.0000	 
  3.8250	   4.8075	  0.0000	 
  3.8250	   4.9400	  0.0000	 
  3.8250	   5.0725	  0.0000	 
  3.8250	   5.2050	  0.0000	 
  3.8250	   5.3375	  0.0000	 
  3.8250	   5.4700	  0.0000	 
  3.8250	   5.6025	  0.0000	 
[...]
POINT_DATA 	    1451 
VECTORS U float 
 50.0000	   0.0000	   0.0000	
 50.0000	   0.0000	   0.0000	
 50.0000	   0.0000	   0.0000	
 50.0000	   0.0000	   0.0000	
 50.0000	  -0.0000	   0.0000	
 50.0000	  -0.0000	   0.0000	
 50.0000	   0.0000	   0.0000	
 50.0000	  -0.0000	   0.0000	
 50.0000	  -0.0000	   0.0000	
 50.0000	   0.0000	   0.0000	
 50.0000	  -0.0000	   0.0000	
 50.0000	  -0.0000	   0.0000	
 50.0000	   0.0000	   0.0000	
 50.0000	   0.0000	   0.0000	
 50.0000	  -0.0000	   0.0000	
 50.0000	  -0.0000	   0.0000	
 50.0000	   0.0000	   0.0000	
 50.0000	   0.0000	   0.0000	
 50.0000	  -0.0000	   0.0000	
 49.0963	   6.1146	   0.0000	
 50.3468	   7.8330	   0.0000	
 50.2072	  12.2156	   0.0000	
 49.8037	  19.0035	   0.0000	
 50.0773	  11.2923	   0.0000	
 49.5506	  22.2169	   0.0000	
 49.2580	  27.0578	   0.0000	
 49.1091	  33.5211	   0.0000	
 49.7770	  36.9976	   0.0000	
 50.0992	  38.5709	   0.0000	
 49.6379	  37.9864	   0.0000	
 50.9285	  37.2914	   0.0000	
 50.4168	  31.4810	   0.0000	
 50.5734	  27.7478	   0.0000	
 50.2205	  25.6139	   0.0000	
 49.9928	  17.5738	   0.0000	
 50.1410	  20.3196	   0.0000	
 49.1570	  17.8402	   0.0000	
 50.5514	  17.0847	   0.0000	
 49.0012	  12.2949	   0.0000	
 45.9857	  21.1094	   0.0000	
 44.7899	  33.9925	   0.0000	
 56.0496	  24.9962	   0.0000	
 42.1373	  37.6488	   0.0000	
 46.2788	  41.3283	   0.0000	
 45.0395	  53.6303	   0.0000	
 46.7677	  62.1207	   0.0000	
 48.4531	  66.2103	   0.0000	
 49.1320	  68.5039	   0.0000	
 50.4176	  69.9930	   0.0000	
 51.1338	  69.1653	   0.0000	
 54.8523	  64.9307	   0.0000	
 53.2521	  51.1710	   0.0000	
 50.5156	  49.6982	   0.0000	
 55.9776	  46.7854	   0.0000	
 47.7228	  35.5983	   0.0000	
 52.4571	  37.7667	   0.0000	
 51.1163	  36.1081	   0.0000	
 42.7728	  21.9208	   0.0000	
 39.7046	  45.4611	   0.0000	
 54.0490	  37.3553	   0.0000	
 45.6781	  50.9732	   0.0000	
 43.9092	  50.5000	   0.0000	
 40.4466	  61.1816	   0.0000	
 41.9569	  68.6501	   0.0000	
 45.4367	  71.0692	   0.0000	
 47.6789	  73.3626	   0.0000	
 47.6496	  76.0475	   0.0000	
 49.8003	  80.5246	   0.0000	
 51.0130	  81.0977	   0.0000	
 55.3425	  84.4154	   0.0000	
 60.6634	  81.0016	   0.0000	
 51.5792	  67.9566	   0.0000	
 54.1338	  67.4306	   0.0000	
 56.9791	  65.5124	   0.0000	
 49.2248	  54.3675	   0.0000	
 49.6568	  54.0082	   0.0000	
 24.2479	  47.4554	   0.0000	
 49.8358	  46.4208	   0.0000	
 46.7066	  58.5254	   0.0000	
 43.5645	  63.4919	   0.0000	
 39.0446	  62.8186	   0.0000	
 38.6777	  64.8736	   0.0000	
 41.4905	  65.7256	   0.0000	
 44.8502	  68.3250	   0.0000	
 46.7041	  70.0879	   0.0000	
 47.1726	  71.5293	   0.0000	
 47.5588	  71.8574	   0.0000	
 50.1658	  77.2746	   0.0000	
 52.9359	  77.7355	   0.0000	
 59.8068	  81.5951	   0.0000	
 59.4989	  84.1691	   0.0000	
 52.2671	  80.6925	   0.0000	
 58.3499	  83.9498	   0.0000	
 54.8110	  81.1883	   0.0000	
 53.7696	  68.9709	   0.0000	
 40.1681	  50.9925	   0.0000	
 43.3917	  65.9910	   0.0000	
 41.0812	  71.1844	   0.0000	
 45.3830	  71.7649	   0.0000	
 38.3686	  67.6146	   0.0000	
 39.0949	  65.9237	   0.0000	
 40.8679	  67.8685	   0.0000	
 44.3788	  69.0024	   0.0000	
 45.8033	  71.0011	   0.0000	
 46.1963	  72.9037	   0.0000	
 47.8955	  74.7433	   0.0000	
 47.2700	  73.6143	   0.0000	
 52.1860	  79.6627	   0.0000	
 57.1181	  78.5669	   0.0000	
 58.0476	  84.0358	   0.0000	
 52.3312	  92.3765	   0.0000	
 53.5437	  92.4789	   0.0000	
 58.3762	  98.0461	   0.0000	
 60.5359	  99.1496	   0.0000	
 36.3522	  69.9676	   0.0000	
 41.9948	  77.0014	   0.0000	
 42.8487	  73.0434	   0.0000	
 45.6436	  74.5512	   0.0000	
 39.5098	  68.6418	   0.0000	
 38.8119	  69.0370	   0.0000	
 41.2339	  68.9208	   0.0000	
 43.5449	  71.0359	   0.0000	
 45.0917	  73.0086	   0.0000	
 44.8341	  75.4848	   0.0000	
 46.7781	  78.4478	   0.0000	
 47.9046	  80.2110	   0.0000	
 47.9267	  79.4088	   0.0000	
 56.3736	  85.1989	   0.0000	
 55.3878	  85.9320	   0.0000	
 49.3170	  94.6279	   0.0000	
 51.8471	  99.2388	   0.0000	
 52.9002	 103.8493	   0.0000	
 53.0017	 115.2041	   0.0000	
 37.2109	  63.9975	   0.0000	
 44.7507	  65.6689	   0.0000	
 43.0684	  64.4686	   0.0000	
 45.6188	  66.7931	   0.0000	
 38.7429	  65.5512	   0.0000	
 39.5478	  64.6929	   0.0000	
 40.2409	  66.9727	   0.0000	
 42.6310	  69.7426	   0.0000	
 43.5716	  72.5567	   0.0000	
 44.1473	  74.0007	   0.0000	
 45.3536	  74.8221	   0.0000	
 46.5700	  77.5823	   0.0000	
 48.5378	  79.3969	   0.0000	
 51.2660	  76.7667	   0.0000	
 55.6135	  83.9870	   0.0000	
 48.4021	  85.7581	   0.0000	
 48.2273	  86.8376	   0.0000	
 50.1887	  91.0879	   0.0000	
 45.8999	 100.1000	   0.0000	
 40.7671	  59.7200	   0.0000	
 44.5101	  63.5719	   0.0000	
 42.4049	  63.3419	   0.0000	
 43.0915	  69.4116	   0.0000	
 39.4411	  65.9565	   0.0000	
 38.3118	  67.4746	   0.0000	
 39.1908	  69.7891	   0.0000	
 41.2302	  72.3238	   0.0000	
 42.8016	  74.0763	   0.0000	
 42.8403	  76.2394	   0.0000	
 44.9887	  78.4636	   0.0000	
 44.8033	  78.5386	   0.0000	
 47.0275	  81.7038	   0.0000	
 52.5012	  81.7389	   0.0000	
 50.2912	  79.9486	   0.0000	
 50.6926	  89.3709	   0.0000	
 48.4918	  85.5764	   0.0000	
 47.1951	  85.5949	   0.0000	
 43.3735	  94.2859	   0.0000	
 41.1567	  58.7352	   0.0000	
 42.9985	  62.9357	   0.0000	
 39.0129	  65.1844	   0.0000	
 43.6268	  67.3457	   0.0000	
 37.9162	  66.5699	   0.0000	
 37.3501	  68.0132	   0.0000	
 38.0738	  69.9660	   0.0000	
 40.3825	  72.0420	   0.0000	
 41.3140	  74.7028	   0.0000	
 41.4414	  77.0539	   0.0000	
 43.6881	  79.1538	   0.0000	
 44.8014	  80.9886	   0.0000	
 44.6068	  81.0982	   0.0000	
 50.9178	  82.6227	   0.0000	
 52.6551	  83.7038	   0.0000	
 44.7130	  84.2843	   0.0000	
 51.4761	  89.8943	   0.0000	
 48.9835	  87.0145	   0.0000	
 40.3974	  91.3444	   0.0000	
 39.6624	  59.3684	   0.0000	
 39.1885	  64.6893	   0.0000	
 40.3419	  63.5457	   0.0000	
 41.2290	  67.7106	   0.0000	
 36.5403	  67.3747	   0.0000	
 36.3335	  68.6898	   0.0000	
 37.1123	  70.6315	   0.0000	
 38.6780	  73.6449	   0.0000	
 39.7936	  76.2593	   0.0000	
 40.2631	  77.8396	   0.0000	
 42.5316	  79.0722	   0.0000	
 43.2864	  80.2442	   0.0000	
 44.7299	  82.0777	   0.0000	
 48.3432	  79.7723	   0.0000	
 51.1915	  82.1695	   0.0000	
 48.7819	  85.0037	   0.0000	
 43.2529	  83.3266	   0.0000	
 52.4217	  88.5280	   0.0000	
 44.5229	  89.7409	   0.0000	
 35.9412	  61.8978	   0.0000	
 41.1751	  63.1479	   0.0000	
 37.5990	  63.4938	   0.0000	
 39.0543	  67.7362	   0.0000	
 35.2924	  67.3958	   0.0000	
 35.1680	  69.1033	   0.0000	
 35.4745	  71.2855	   0.0000	
 37.0203	  73.6135	   0.0000	
 38.5744	  75.5743	   0.0000	
 38.3869	  78.1388	   0.0000	
 41.9657	  80.7112	   0.0000	
 42.3257	  81.0337	   0.0000	
 43.4226	  82.2791	   0.0000	
 49.0241	  81.6227	   0.0000	
 48.2131	  80.9595	   0.0000	
 48.2726	  85.5557	   0.0000	
 47.1311	  86.9999	   0.0000	
 42.7996	  86.2951	   0.0000	
 49.5196	  92.7233	   0.0000	
 39.7997	  60.9102	   0.0000	
 37.8685	  63.7247	   0.0000	
 35.3808	  65.3090	   0.0000	
 36.8068	  68.9387	   0.0000	
 33.8843	  69.3042	   0.0000	
 33.6863	  71.0109	   0.0000	
 34.1539	  72.9052	   0.0000	
 35.8029	  74.9573	   0.0000	
 36.4033	  77.9274	   0.0000	
 35.9611	  81.0817	   0.0000	
 39.6635	  83.8620	   0.0000	
 42.0291	  85.9533	   0.0000	
 42.4763	  85.9641	   0.0000	
 47.3900	  84.5792	   0.0000	
 48.9933	  86.0147	   0.0000	
 44.4614	  88.0093	   0.0000	
 45.6810	  92.5638	   0.0000	
 48.4884	  90.9256	   0.0000	
 38.5637	  90.6501	   0.0000	
 35.8042	  57.6321	   0.0000	
 33.3549	  60.0080	   0.0000	
 33.0977	  62.9589	   0.0000	
 34.1059	  67.9002	   0.0000	
 31.7580	  69.7756	   0.0000	
 32.4176	  71.8097	   0.0000	
 32.3193	  74.0513	   0.0000	
 33.1558	  77.7168	   0.0000	
 33.2919	  81.7717	   0.0000	
 36.4208	  81.2732	   0.0000	
 37.7776	  80.2080	   0.0000	
 39.4962	  82.0089	   0.0000	
 42.7424	  84.4116	   0.0000	
 46.8964	  82.2438	   0.0000	
 46.2987	  84.0113	   0.0000	
 45.6439	  87.7450	   0.0000	
 40.8393	  89.4832	   0.0000	
 49.7959	  86.1527	   0.0000	
 50.6023	  79.5310	   0.0000	
 31.1210	  60.1009	   0.0000	
 29.3250	  62.0423	   0.0000	
 28.7603	  65.7706	   0.0000	
 30.8773	  69.3028	   0.0000	
 29.5317	  70.6576	   0.0000	
 29.9919	  73.4568	   0.0000	
 29.3018	  76.1752	   0.0000	
 29.1008	  79.2954	   0.0000	
 34.2766	  78.9588	   0.0000	
 32.9366	  81.2451	   0.0000	
 39.4724	  85.1126	   0.0000	
 36.9052	  83.0549	   0.0000	
 39.8707	  84.7665	   0.0000	
 46.7520	  84.2188	   0.0000	
 43.2685	  87.1469	   0.0000	
 42.5734	  91.8787	   0.0000	
 42.9637	  94.6149	   0.0000	
 47.8130	  86.8190	   0.0000	
 56.6387	  78.3992	   0.0000	
 26.4187	  58.2330	   0.0000	
 22.9327	  64.4233	   0.0000	
 27.1087	  68.4688	   0.0000	
 28.4266	  72.2234	   0.0000	
 26.7787	  74.1171	   0.0000	
 27.2598	  76.2966	   0.0000	
 26.8350	  77.3962	   0.0000	
 32.1395	  75.1670	   0.0000	
 32.2770	  75.8739	   0.0000	
 26.1641	  81.6348	   0.0000	
 33.9884	  87.7209	   0.0000	
 39.4980	  91.6584	   0.0000	
 38.5815	  89.7844	   0.0000	
 41.4088	  90.8526	   0.0000	
 41.7384	  98.0520	   0.0000	
 37.1241	 103.2301	   0.0000	
 41.9477	 101.5710	   0.0000	
 55.7637	  90.6268	   0.0000	
 55.4372	  79.4328	   0.0000	
 19.6813	  54.4904	   0.0000	
 22.6323	  58.0722	   0.0000	
 13.4103	  67.4199	   0.0000	
 22.3839	  80.2034	   0.0000	
 24.0805	  85.2299	   0.0000	
 26.3612	  87.4854	   0.0000	
 32.3142	  85.7859	   0.0000	
 31.6223	  85.9337	   0.0000	
 23.2218	  92.5555	   0.0000	
 29.5246	  90.5658	   0.0000	
 25.8783	  87.8733	   0.0000	
 30.8358	  94.8100	   0.0000	
 41.8297	  99.8186	   0.0000	
 36.4198	  97.9661	   0.0000	
 31.4434	 105.2351	   0.0000	
 35.1888	 107.9052	   0.0000	
 50.7547	  96.7322	   0.0000	
 48.7690	  85.8386	   0.0000	
 66.2976	  72.8663	   0.0000	
  3.6225	  47.6199	   0.0000	
 -1.4777	  55.0765	   0.0000	
 12.4562	  63.3833	   0.0000	
 16.0166	  69.4721	   0.0000	
 22.1086	  73.7334	   0.0000	
 32.8695	  74.6009	   0.0000	
 31.2787	  74.6303	   0.0000	
 17.7068	  79.6770	   0.0000	
 26.7664	  79.5263	   0.0000	
 20.6922	  83.6533	   0.0000	
 30.6944	  89.9015	   0.0000	
 16.4472	  88.8364	   0.0000	
 26.3514	  97.5504	   0.0000	
 43.2932	 101.5531	   0.0000	
 22.9775	 110.8726	   0.0000	
 32.6183	 116.8015	   0.0000	
 35.4175	 109.7718	   0.0000	
 64.9218	 102.3208	   0.0000	
 73.3983	  85.2485	   0.0000	
 -4.2237	  60.0701	   0.0000	
  3.8625	  68.5778	   0.0000	
  8.7595	  74.6412	   0.0000	
 23.3188	  79.4778	   0.0000	
 32.7395	  83.5045	   0.0000	
 26.9970	  82.8140	   0.0000	
 11.3050	  90.9490	   0.0000	
 20.2587	  94.7368	   0.0000	
 17.1993	 101.0071	   0.0000	
 13.0668	 105.9244	   0.0000	
 15.4843	 110.2282	   0.0000	
 21.5762	 118.2626	   0.0000	
  2.5375	 123.1122	   0.0000	
 20.1484	 128.9865	   0.0000	
 14.4200	 143.5769	   0.0000	
  7.7589	 155.1578	   0.0000	
 26.6006	 148.6619	   0.0000	
 57.7006	 130.4238	   0.0000	
 68.8503	 104.7865	   0.0000	
 -2.6292	  31.4289	   0.0000	
  4.2734	  37.3963	   0.0000	
 15.3572	  44.6029	   0.0000	
 25.5557	  52.5063	   0.0000	
  0.5128	  61.1993	   0.0000	
  0.4948	  61.9586	   0.0000	
  8.2084	  66.1247	   0.0000	
  0.5838	  69.9511	   0.0000	
  6.4935	  73.4895	   0.0000	
  0.4351	  76.4615	   0.0000	
  6.0364	  79.3951	   0.0000	
  0.6080	  82.6073	   0.0000	
  6.7098	  85.9233	   0.0000	
 -0.9210	  88.5843	   0.0000	
 -0.3205	  87.7735	   0.0000	
 -6.4462	  92.5554	   0.0000	
 -0.1631	  90.6537	   0.0000	
 22.1789	  86.7736	   0.0000	
 58.7033	  76.5547	   0.0000	
 -0.0000	  -0.0000	   0.0000	
  0.0000	   0.0000	   0.0000	
 -0.0000	   0.0000	   0.0000	
 -0.0000	   0.0000	   0.0000	
  0.0000	  -0.0000	   0.0000	
 -0.0000	   0.0000	   0.0000	
  0.0000	   0.0000	   0.0000	
  0.0000	  -0.0000	   0.0000	
 -0.0000	  -0.0000	   0.0000	
  0.0000	   0.0000	   0.0000	
  0.0000	   0.0000	   0.0000	
  0.0000	  -0.0000	   0.0000	
 -0.0000	   0.0000	   0.0000	
 -0.0000	   0.0000	   0.0000	
 -0.0000	  -0.0000	   0.0000	
 -0.0000	  -0.0000	   0.0000	
  0.0000	  -0.0000	   0.0000	
 -0.0000	  -0.0000	   0.0000	
  0.0000	   0.0000	   0.0000	
 50.0000	  50.0000	   0.0000	
 50.0000	  -0.0000	   0.0000	
 68.4369	  50.0720	   0.0000	
 49.9902	  16.2995	   0.0000	
 86.4234	  50.0310	   0.0000	
 50.1138	  32.8041	   0.0000	
 82.3421	  55.1571	   0.0000	
 53.1668	  49.7455	   0.0000	
 79.2564	  59.8405	   0.0000	
 55.6360	  66.9083	   0.0000	
 50.3573	  79.8585	   0.0000	
 50.3350	  79.2833	   0.0000	
 49.1154	  77.7635	   0.0000	
 76.9450	 104.1908	   0.0000	
 45.0781	  76.4081	   0.0000	
 66.9093	  93.1996	   0.0000	
 46.6954	  71.9027	   0.0000	
 56.4735	  83.5219	   0.0000	
 49.0987	  67.5918	   0.0000	
 54.6110	  79.8447	   0.0000	
 47.8797	  65.7895	   0.0000	
 51.5187	  76.0147	   0.0000	
 44.0943	  65.1833	   0.0000	
 56.5216	  76.8668	   0.0000	
 38.7644	  64.6119	   0.0000	
 63.1761	  77.4282	   0.0000	
 41.4932	  59.0505	   0.0000	
 49.2201	  67.8313	   0.0000	
 34.5744	  57.3349	   0.0000	
 59.8006	  69.4187	   0.0000	
 27.6279	  54.9350	   0.0000	
 66.2633	  68.1058	   0.0000	
 17.5817	  52.5934	   0.0000	
 68.7731	  63.6917	   0.0000	
 18.3358	  41.4968	   0.0000	
 78.3545	  60.4033	   0.0000	
-18.5435	  49.0831	   0.0000	
109.8052	  68.4152	   0.0000	
-10.3328	  24.3693	   0.0000	
108.8907	  49.8195	   0.0000	
 -0.0000	   0.0000	   0.0000	
 -0.0000	  -0.0000	   0.0000	
 50.4816	  50.0000	   0.0000	
 87.9060	 157.0990	   0.0000	
 47.6500	  49.4754	   0.0000	
 52.1747	 139.6803	   0.0000	
 45.7205	  49.0447	   0.0000	
 35.3929	 124.0761	   0.0000	
 45.4337	  47.6335	   0.0000	
 24.2897	 110.7586	   0.0000	
 43.2806	  47.2817	   0.0000	
 25.0494	 105.0456	   0.0000	
 43.8440	  45.9438	   0.0000	
 24.0401	 100.2003	   0.0000	
 43.7170	  45.5990	   0.0000	
 25.4671	  96.9803	   0.0000	
 44.5770	  44.5471	   0.0000	
 25.0217	  92.9978	   0.0000	
 43.4555	  44.1122	   0.0000	
 27.7061	  89.8433	   0.0000	
 40.2061	  44.4658	   0.0000	
 30.9885	  86.5701	   0.0000	
 40.5195	  43.0123	   0.0000	
 36.1379	  83.9411	   0.0000	
 46.0818	  39.6803	   0.0000	
 27.0465	  75.9654	   0.0000	
 40.8695	  40.0222	   0.0000	
 35.8883	  74.5832	   0.0000	
 40.8319	  37.1448	   0.0000	
 38.2991	  69.4182	   0.0000	
 38.8313	  33.2478	   0.0000	
 39.6997	  63.4104	   0.0000	
 41.1923	  27.6698	   0.0000	
 44.8348	  55.3974	   0.0000	
 24.1977	  26.6705	   0.0000	
 63.3022	  50.4890	   0.0000	
 18.5328	  19.3854	   0.0000	
 68.9026	  38.7474	   0.0000	
 36.4065	   2.7573	   0.0000	
 61.8403	  21.7225	   0.0000	
 25.9505	   0.4775	   0.0000	
 -2.3273	  -1.5875	   0.0000	
 -0.0000	   0.0000	   0.0000	
 -0.0000	  -0.0000	   0.0000	
 55.4160	  50.0000	   0.0000	
-44.4240	  67.2078	   0.0000	
 51.5149	  50.7698	   0.0000	
-12.6121	  68.7964	   0.0000	
 49.0663	  51.1136	   0.0000	
  2.5170	  68.7222	   0.0000	
 46.5534	  51.9946	   0.0000	
 10.0517	  68.3422	   0.0000	
 46.8986	  52.2376	   0.0000	
 12.0394	  67.0187	   0.0000	
 47.3317	  52.7022	   0.0000	
 12.2295	  65.7680	   0.0000	
 46.9096	  53.4814	   0.0000	
 13.6740	  64.3286	   0.0000	
 46.6627	  53.3954	   0.0000	
 15.5432	  62.5240	   0.0000	
 46.1907	  54.2167	   0.0000	
 17.1157	  60.9913	   0.0000	
 45.1678	  54.8454	   0.0000	
 20.1697	  59.9212	   0.0000	
 50.4409	  54.5733	   0.0000	
 15.3476	  58.1919	   0.0000	
 50.5698	  55.0182	   0.0000	
 17.0607	  55.5787	   0.0000	
 54.8896	  55.1121	   0.0000	
 17.6155	  52.8990	   0.0000	
 56.9652	  55.8341	   0.0000	
  9.0448	  49.3368	   0.0000	
 60.2251	  56.1168	   0.0000	
 12.9812	  46.6297	   0.0000	
 61.9749	  53.5432	   0.0000	
 16.7086	  40.5561	   0.0000	
 60.6748	  52.3771	   0.0000	
 21.8954	  36.0660	   0.0000	
 66.6180	  52.5480	   0.0000	
 26.0390	  32.0634	   0.0000	
 63.9007	  51.3867	   0.0000	
  0.6695	  32.0939	   0.0000	
 39.0352	  50.9481	   0.0000	
  1.7327	  37.5196	   0.0000	
 28.6747	  48.3597	   0.0000	
 -0.3742	  40.1384	   0.0000	
 44.6607	  50.0000	   0.0000	
 11.5053	  54.3575	   0.0000	
 45.2361	  50.7931	   0.0000	
 -2.3775	  59.5509	   0.0000	
 43.3619	  50.9979	   0.0000	
  1.5879	  60.1325	   0.0000	
 41.5840	  50.9895	   0.0000	
  5.1857	  59.5992	   0.0000	
 41.7713	  51.4889	   0.0000	
  6.4213	  59.5193	   0.0000	
 42.1783	  52.0096	   0.0000	
  7.0551	  59.5970	   0.0000	
 40.6029	  52.1103	   0.0000	
 10.2005	  58.8298	   0.0000	
 41.1413	  52.9563	   0.0000	
  8.8129	  59.7888	   0.0000	
 42.4516	  53.5720	   0.0000	
 11.0733	  59.0518	   0.0000	
 41.6865	  54.2265	   0.0000	
 13.0151	  58.7562	   0.0000	
 43.6658	  55.5238	   0.0000	
 14.0920	  59.0167	   0.0000	
 43.0535	  56.2200	   0.0000	
 13.1193	  58.9240	   0.0000	
 44.0245	  58.1039	   0.0000	
  8.2434	  60.7750	   0.0000	
 45.9891	  60.5191	   0.0000	
 11.8021	  61.3756	   0.0000	
 45.5435	  61.9689	   0.0000	
 10.6486	  61.6198	   0.0000	
 52.5083	  66.9987	   0.0000	
  6.5540	  63.8600	   0.0000	
 50.0407	  69.7278	   0.0000	
  9.4860	  63.4855	   0.0000	
 49.0985	  73.5246	   0.0000	
 14.4021	  62.4322	   0.0000	
 50.8528	  77.6844	   0.0000	
 19.5541	  60.0150	   0.0000	
 42.2757	  83.0602	   0.0000	
 19.6137	  66.5205	   0.0000	
 21.8845	  83.8357	   0.0000	
 22.0654	  71.0058	   0.0000	
 44.7998	  50.0000	   0.0000	
 -1.3321	  45.6982	   0.0000	
 44.6646	  49.8671	   0.0000	
  2.4014	  44.8682	   0.0000	
 43.8861	  49.9321	   0.0000	
  5.0612	  44.1269	   0.0000	
 42.6589	  49.6464	   0.0000	
  7.9804	  43.3238	   0.0000	
 42.7779	  49.8844	   0.0000	
  6.7683	  44.9225	   0.0000	
 42.7021	  49.8939	   0.0000	
  5.5430	  46.9168	   0.0000	
 41.5499	  49.3984	   0.0000	
  7.0169	  47.2122	   0.0000	
 41.4856	  49.5444	   0.0000	
  7.8573	  48.2662	   0.0000	
 40.8841	  49.5425	   0.0000	
 10.0052	  48.4270	   0.0000	
 39.7129	  48.9916	   0.0000	
 11.2332	  48.8363	   0.0000	
 41.5584	  50.1709	   0.0000	
  9.6763	  50.7071	   0.0000	
 37.9772	  49.0296	   0.0000	
 14.9357	  49.2294	   0.0000	
 39.4245	  50.6028	   0.0000	
 15.0836	  50.2061	   0.0000	
 39.1537	  51.1358	   0.0000	
 13.4671	  51.8324	   0.0000	
 39.4764	  52.8333	   0.0000	
 14.7933	  53.6130	   0.0000	
 38.6094	  53.5862	   0.0000	
 14.7901	  54.6970	   0.0000	
 37.8904	  55.7889	   0.0000	
 15.0068	  57.1275	   0.0000	
 39.3564	  60.4529	   0.0000	
 14.3185	  60.5548	   0.0000	
 35.0758	  62.4413	   0.0000	
 21.6240	  60.6011	   0.0000	
 40.5649	  68.7175	   0.0000	
 17.0104	  64.2233	   0.0000	
 19.7603	  66.7373	   0.0000	
 38.4321	  58.2165	   0.0000	
 51.0472	  50.0000	   0.0000	
  0.7353	  30.5995	   0.0000	
 48.3377	  49.4111	   0.0000	
  2.1493	  32.0055	   0.0000	
 45.3570	  48.7582	   0.0000	
  3.5276	  33.4231	   0.0000	
 44.4961	  48.6667	   0.0000	
  4.7829	  34.8405	   0.0000	
 45.4325	  49.1799	   0.0000	
  7.1631	  35.8652	   0.0000	
 45.3187	  49.2617	   0.0000	
  7.8892	  37.7898	   0.0000	
 42.0914	  47.1223	   0.0000	
  8.8221	  38.9193	   0.0000	
 41.6400	  47.2975	   0.0000	
 10.0968	  39.1317	   0.0000	
 41.5529	  47.8516	   0.0000	
 10.7569	  39.9180	   0.0000	
 40.3728	  47.9283	   0.0000	
 12.1469	  41.1955	   0.0000	
 40.0436	  48.1972	   0.0000	
 13.6271	  42.3727	   0.0000	
 38.8976	  48.1815	   0.0000	
 15.0654	  43.3091	   0.0000	
 38.6917	  48.8080	   0.0000	
 15.5165	  45.2295	   0.0000	
 38.0807	  49.5430	   0.0000	
 15.6067	  47.2409	   0.0000	
 37.9140	  49.0347	   0.0000	
 16.2249	  47.1537	   0.0000	
 36.5110	  49.3538	   0.0000	
 16.6219	  48.0455	   0.0000	
 34.7026	  49.2241	   0.0000	
 22.8131	  46.5812	   0.0000	
 36.7207	  52.0503	   0.0000	
 18.0628	  52.1278	   0.0000	
 33.3876	  51.3265	   0.0000	
 21.9397	  52.1930	   0.0000	
 30.4659	  51.4638	   0.0000	
 23.5630	  54.0237	   0.0000	
 30.4900	  55.7847	   0.0000	
 20.9525	  57.4804	   0.0000	
  0.0000	   0.0000	   0.0000	
  0.0000	   0.0000	   0.0000	
 -0.0000	   0.0000	   0.0000	
  0.0000	  -0.0000	   0.0000	
 -0.0000	   0.0000	   0.0000	
  0.0000	   0.0000	   0.0000	
 -0.0000	   0.0000	   0.0000	
 -0.0000	  -0.0000	   0.0000	
 -0.0000	  -0.0000	   0.0000	
 -0.0000	   0.0000	   0.0000	
 -0.0000	  -0.0000	   0.0000	
 -0.0000	  -0.0000	   0.0000	
 -0.0000	   0.0000	   0.0000	
 -0.0000	  -0.0000	   0.0000	