# vtk DataFile Version 3.0 
Results 
ASCII 
DATASET UNSTRUCTURED_GRID 
POINTS 	     299 float 
  0.0000	   1.5000	  0.0000	 
  0.0000	   3.0000	  0.0000	 
  0.0000	   4.5000	  0.0000	 
  0.0000	   6.0000	  0.0000	 
  0.0000	   7.5000	  0.0000	 
  0.0000	   9.0000	  0.0000	 
  0.0000	  10.5000	  0.0000	 
  0.5625	   2.0156	  0.0000	 
  0.5625	   3.3438	  0.0000	 
  0.5625	   4.6719	  0.0000	 
  0.5625	   6.0000	  0.0000	 
  0.5625	   7.3281	  0.0000	 
  0.5625	   8.6562	  0.0000	 
  0.5625	   9.9844	  0.0000	 
  1.1250	   2.5312	  0.0000	 
  1.1250	   3.6875	  0.0000	 
  1.1250	   4.8438	  0.0000	 
  1.1250	   6.0000	  0.0000	 
  1.1250	   7.1562	  0.0000	 
  1.1250	   8.3125	  0.0000	 
  1.1250	   9.4688	  0.0000	 
  1.6875	   3.0469	  0.0000	 
  1.6875	   4.0312	  0.0000	 
  1.6875	   5.0156	  0.0000	 
  1.6875	   6.0000	  0.0000	 
  1.6875	   6.9844	  0.0000	 
  1.6875	   7.9688	  0.0000	 
  1.6875	   8.9531	  0.0000	 
  2.2500	   3.5625	  0.0000	 
  2.2500	   4.3750	  0.0000	 
  2.2500	   5.1875	  0.0000	 
  2.2500	   6.0000	  0.0000	 
  2.2500	   6.8125	  0.0000	 
  2.2500	   7.6250	  0.0000	 
  2.2500	   8.4375	  0.0000	 
  2.8125	   4.0781	  0.0000	 
  2.8125	   4.7188	  0.0000	 
  2.8125	   5.3594	  0.0000	 
  2.8125	   6.0000	  0.0000	 
  2.8125	   6.6406	  0.0000	 
  2.8125	   7.2812	  0.0000	 
  2.8125	   7.9219	  0.0000	 
  3.3750	   4.5938	  0.0000	 
  3.3750	   5.0625	  0.0000	 
  3.3750	   5.5312	  0.0000	 
  3.3750	   6.0000	  0.0000	 
  3.3750	   6.4688	  0.0000	 
  3.3750	   6.9375	  0.0000	 
  3.3750	   7.4062	  0.0000	 
  3.9375	   5.1094	  0.0000	 
  3.9375	   5.4062	  0.0000	 
  3.9375	   5.7031	  0.0000	 
  3.9375	   6.0000	  0.0000	 
  3.9375	   6.2969	  0.0000	 
  3.9375	   6.5938	  0.0000	 
  3.9375	   6.8906	  0.0000	 
  4.5000	   5.6250	  0.0000	 
  4.5000	   5.7500	  0.0000	 
  4.5000	   5.8750	  0.0000	 
  4.5000	   6.0000	  0.0000	 
  4.5000	   6.1250	  0.0000	 
  4.5000	   6.2500	  0.0000	 
  4.5000	   6.3750	  0.0000	 
  0.0000	   0.0000	  0.0000	 
  0.0000	  12.0000	  0.0000	 
  0.5625	   0.6875	  0.0000	 
  0.5625	  11.3125	  0.0000	 
  1.1250	   1.3750	  0.0000	 
  1.1250	  10.6250	  0.0000	 
  1.6875	   2.0625	  0.0000	 
  1.6875	   9.9375	  0.0000	 
  2.2500	   2.7500	  0.0000	 
  2.2500	   9.2500	  0.0000	 
  2.8125	   3.4375	  0.0000	 
  2.8125	   8.5625	  0.0000	 
  3.3750	   4.1250	  0.0000	 
  3.3750	   7.8750	  0.0000	 
  3.9375	   4.8125	  0.0000	 
  3.9375	   7.1875	  0.0000	 
  4.5000	   5.5000	  0.0000	 
  4.5000	   6.5000	  0.0000	 
  2.8000	   0.0000	  0.0000	 
  2.8000	  12.0000	  0.0000	 
  3.1375	   0.6875	  0.0000	 
  3.1375	  11.3125	  0.0000	 
  3.4750	   1.3750	  0.0000	 
  3.4750	  10.6250	  0.0000	 
  3.8125	   2.0625	  0.0000	 
  3.8125	   9.9375	  0.0000	 
  4.1500	   2.7500	  0.0000	 
  4.1500	   9.2500	  0.0000	 
  4.4875	   3.4375	  0.0000	 
  4.4875	   8.5625	  0.0000	 
  4.8250	   4.1250	  0.0000	 
  4.8250	   7.8750	  0.0000	 
  5.1625	   4.8125	  0.0000	 
  5.1625	   7.1875	  0.0000	 
  5.5000	   5.5000	  0.0000	 
  5.5000	   6.5000	  0.0000	 
  5.6000	   0.0000	  0.0000	 
  5.6000	  12.0000	  0.0000	 
  5.7125	   0.6875	  0.0000	 
  5.7125	  11.3125	  0.0000	 
  5.8250	   1.3750	  0.0000	 
  5.8250	  10.6250	  0.0000	 
  5.9375	   2.0625	  0.0000	 
  5.9375	   9.9375	  0.0000	 
  6.0500	   2.7500	  0.0000	 
  6.0500	   9.2500	  0.0000	 
  6.1625	   3.4375	  0.0000	 
  6.1625	   8.5625	  0.0000	 
  6.2750	   4.1250	  0.0000	 
  6.2750	   7.8750	  0.0000	 
  6.3875	   4.8125	  0.0000	 
  6.3875	   7.1875	  0.0000	 
  6.5000	   5.5000	  0.0000	 
  6.5000	   6.5000	  0.0000	 
  8.4000	   0.0000	  0.0000	 
  8.4000	  12.0000	  0.0000	 
  8.2875	   0.6875	  0.0000	 
  8.2875	  11.3125	  0.0000	 
  8.1750	   1.3750	  0.0000	 
  8.1750	  10.6250	  0.0000	 
  8.0625	   2.0625	  0.0000	 
  8.0625	   9.9375	  0.0000	 
  7.9500	   2.7500	  0.0000	 
  7.9500	   9.2500	  0.0000	 
  7.8375	   3.4375	  0.0000	 
  7.8375	   8.5625	  0.0000	 
  7.7250	   4.1250	  0.0000	 
  7.7250	   7.8750	  0.0000	 
  7.6125	   4.8125	  0.0000	 
  7.6125	   7.1875	  0.0000	 
  7.5000	   5.5000	  0.0000	 
  7.5000	   6.5000	  0.0000	 
 11.2000	   0.0000	  0.0000	 
 11.2000	  12.0000	  0.0000	 
 10.8625	   0.6875	  0.0000	 
 10.8625	  11.3125	  0.0000	 
 10.5250	   1.3750	  0.0000	 
 10.5250	  10.6250	  0.0000	 
 10.1875	   2.0625	  0.0000	 
 10.1875	   9.9375	  0.0000	 
  9.8500	   2.7500	  0.0000	 
  9.8500	   9.2500	  0.0000	 
  9.5125	   3.4375	  0.0000	 
  9.5125	   8.5625	  0.0000	 
  9.1750	   4.1250	  0.0000	 
  9.1750	   7.8750	  0.0000	 
  8.8375	   4.8125	  0.0000	 
  8.8375	   7.1875	  0.0000	 
  8.5000	   5.5000	  0.0000	 
  8.5000	   6.5000	  0.0000	 
 14.0000	   0.0000	  0.0000	 
 14.0000	  12.0000	  0.0000	 
 13.4375	   0.6875	  0.0000	 
 13.4375	  11.3125	  0.0000	 
 12.8750	   1.3750	  0.0000	 
 12.8750	  10.6250	  0.0000	 
 12.3125	   2.0625	  0.0000	 
 12.3125	   9.9375	  0.0000	 
 11.7500	   2.7500	  0.0000	 
 11.7500	   9.2500	  0.0000	 
 11.1875	   3.4375	  0.0000	 
 11.1875	   8.5625	  0.0000	 
 10.6250	   4.1250	  0.0000	 
 10.6250	   7.8750	  0.0000	 
 10.0625	   4.8125	  0.0000	 
 10.0625	   7.1875	  0.0000	 
  9.5000	   5.5000	  0.0000	 
  9.5000	   6.5000	  0.0000	 
  5.5000	   5.5000	  0.0000	 
  5.5000	   6.5000	  0.0000	 
  5.5000	   5.6567	  0.0000	 
  5.5000	   6.3433	  0.0000	 
  5.5000	   5.8133	  0.0000	 
  5.5000	   6.1867	  0.0000	 
  6.5000	   5.5000	  0.0000	 
  6.5000	   6.5000	  0.0000	 
  6.5000	   5.6567	  0.0000	 
  6.5000	   6.3433	  0.0000	 
  6.5000	   5.8133	  0.0000	 
  6.5000	   6.1867	  0.0000	 
  7.5000	   5.5000	  0.0000	 
  7.5000	   6.5000	  0.0000	 
  7.5000	   5.6567	  0.0000	 
  7.5000	   6.3433	  0.0000	 
  7.5000	   5.8133	  0.0000	 
  7.5000	   6.1867	  0.0000	 
  8.5000	   5.5000	  0.0000	 
  8.5000	   6.5000	  0.0000	 
  8.5000	   5.6567	  0.0000	 
  8.5000	   6.3433	  0.0000	 
  8.5000	   5.8133	  0.0000	 
  8.5000	   6.1867	  0.0000	 
  9.5000	   5.5000	  0.0000	 
  9.5000	   6.5000	  0.0000	 
  9.5000	   5.6567	  0.0000	 
  9.5000	   6.3433	  0.0000	 
  9.5000	   5.8133	  0.0000	 
  9.5000	   6.1867	  0.0000	 
  5.5000	   5.9700	  0.0000	 
  5.5000	   6.0000	  0.0000	 
  5.5000	   6.0300	  0.0000	 
  6.5000	   5.9700	  0.0000	 
  6.5000	   6.0000	  0.0000	 
  6.5000	   6.0300	  0.0000	 
  7.5000	   5.9700	  0.0000	 
  7.5000	   6.0000	  0.0000	 
  7.5000	   6.0300	  0.0000	 
  8.5000	   5.9700	  0.0000	 
  8.5000	   6.0000	  0.0000	 
  8.5000	   6.0300	  0.0000	 
  9.5000	   5.9700	  0.0000	 
  9.5000	   6.0000	  0.0000	 
  9.5000	   6.0300	  0.0000	 
 10.0625	   5.1371	  0.0000	 
 10.0625	   6.8629	  0.0000	 
 10.0625	   5.4617	  0.0000	 
 10.0625	   6.5383	  0.0000	 
 10.0625	   5.7862	  0.0000	 
 10.0625	   6.2138	  0.0000	 
 10.6250	   4.6175	  0.0000	 
 10.6250	   7.3825	  0.0000	 
 10.6250	   5.1100	  0.0000	 
 10.6250	   6.8900	  0.0000	 
 10.6250	   5.6025	  0.0000	 
 10.6250	   6.3975	  0.0000	 
 11.1875	   4.0979	  0.0000	 
 11.1875	   7.9021	  0.0000	 
 11.1875	   4.7583	  0.0000	 
 11.1875	   7.2417	  0.0000	 
 11.1875	   5.4188	  0.0000	 
 11.1875	   6.5812	  0.0000	 
 11.7500	   3.5783	  0.0000	 
 11.7500	   8.4217	  0.0000	 
 11.7500	   4.4067	  0.0000	 
 11.7500	   7.5933	  0.0000	 
 11.7500	   5.2350	  0.0000	 
 11.7500	   6.7650	  0.0000	 
 12.3125	   3.0587	  0.0000	 
 12.3125	   8.9413	  0.0000	 
 12.3125	   4.0550	  0.0000	 
 12.3125	   7.9450	  0.0000	 
 12.3125	   5.0512	  0.0000	 
 12.3125	   6.9488	  0.0000	 
 12.8750	   2.5392	  0.0000	 
 12.8750	   9.4608	  0.0000	 
 12.8750	   3.7033	  0.0000	 
 12.8750	   8.2967	  0.0000	 
 12.8750	   4.8675	  0.0000	 
 12.8750	   7.1325	  0.0000	 
 13.4375	   2.0196	  0.0000	 
 13.4375	   9.9804	  0.0000	 
 13.4375	   3.3517	  0.0000	 
 13.4375	   8.6483	  0.0000	 
 13.4375	   4.6837	  0.0000	 
 13.4375	   7.3163	  0.0000	 
 14.0000	   1.5000	  0.0000	 
 14.0000	  10.5000	  0.0000	 
 14.0000	   3.0000	  0.0000	 
 14.0000	   9.0000	  0.0000	 
 14.0000	   4.5000	  0.0000	 
 14.0000	   7.5000	  0.0000	 
 10.0625	   6.0000	  0.0000	 
 10.6250	   6.0000	  0.0000	 
 11.1875	   6.0000	  0.0000	 
 11.7500	   6.0000	  0.0000	 
 12.3125	   6.0000	  0.0000	 
 12.8750	   6.0000	  0.0000	 
 13.4375	   6.0000	  0.0000	 
 14.0000	   6.0000	  0.0000	 
 15.8333	   0.0000	  0.0000	 
 15.8333	   1.5000	  0.0000	 
 15.8333	   3.0000	  0.0000	 
 15.8333	   4.5000	  0.0000	 
 15.8333	   6.0000	  0.0000	 
 15.8333	   7.5000	  0.0000	 
 15.8333	   9.0000	  0.0000	 
 15.8333	  10.5000	  0.0000	 
 15.8333	  12.0000	  0.0000	 
 17.6667	   0.0000	  0.0000	 
 17.6667	   1.5000	  0.0000	 
 17.6667	   3.0000	  0.0000	 
 17.6667	   4.5000	  0.0000	 
 17.6667	   6.0000	  0.0000	 
 17.6667	   7.5000	  0.0000	 
 17.6667	   9.0000	  0.0000	 
 17.6667	  10.5000	  0.0000	 
 17.6667	  12.0000	  0.0000	 
 19.5000	   0.0000	  0.0000	 
 19.5000	   1.5000	  0.0000	 
 19.5000	   3.0000	  0.0000	 
 19.5000	   4.5000	  0.0000	 
 19.5000	   6.0000	  0.0000	 
 19.5000	   7.5000	  0.0000	 
 19.5000	   9.0000	  0.0000	 
 19.5000	  10.5000	  0.0000	 
 19.5000	  12.0000	  0.0000	 

CELLS 	     528 	    2112 
       3	       30	      37	       31	
       3	      275	     271	      262	
       3	       34	      41	       74	
       3	        6	      13	       68	
       3	      194	     192	      186	
       3	      182	     188	      180	
       3	        5	      13	        6	
       3	       23	      22	       29	
       3	       91	      93	       75	
       3	       20	      13	        5	
       3	       67	      65	       81	
       3	       70	      84	       68	
       3	        0	      63	       65	
       3	       26	      25	       33	
       3	       20	       5	       12	
       3	       55	      47	       54	
       3	       20	      70	       13	
       3	       73	      28	       71	
       3	      102	     104	      122	
       3	      127	     129	      109	
       3	      140	     160	      138	
       3	      241	     235	      243	
       3	      277	     261	      263	
[...]
POINT_DATA 	     299 
VECTORS U float 
 50.0000	   0.0000	   0.0000	
 50.0000	   0.0000	   0.0000	
 50.0000	  -0.0000	   0.0000	
 50.0000	   0.0000	   0.0000	
 50.0000	  -0.0000	   0.0000	
 50.0000	   0.0000	   0.0000	
 50.0000	   0.0000	   0.0000	
 50.2770	  22.1306	   0.0000	
 48.7521	  13.3601	   0.0000	
 45.1468	  41.3727	   0.0000	
 46.1922	  54.5754	   0.0000	
 56.0040	  60.1008	   0.0000	
 46.7671	  37.9638	   0.0000	
 52.9195	  51.1556	   0.0000	
 61.5404	  40.0114	   0.0000	
 31.8248	  47.7101	   0.0000	
 37.1156	  73.2414	   0.0000	
 42.8634	  79.1873	   0.0000	
 51.5224	  85.6973	   0.0000	
 61.0107	  92.2253	   0.0000	
 41.5137	  86.3342	   0.0000	
 58.2165	  76.4958	   0.0000	
 19.9087	  67.7571	   0.0000	
 36.9702	  72.9317	   0.0000	
 41.3937	  77.6103	   0.0000	
 48.9010	  76.2896	   0.0000	
 51.1382	  86.3614	   0.0000	
 46.8324	 106.8143	   0.0000	
 38.8935	  75.8481	   0.0000	
 21.1700	  62.8991	   0.0000	
 35.2071	  74.9578	   0.0000	
 36.5234	  81.3406	   0.0000	
 44.6874	  88.3536	   0.0000	
 49.2347	  87.5815	   0.0000	
 39.2515	  85.5088	   0.0000	
 39.3492	  80.8230	   0.0000	
 18.0123	  74.3817	   0.0000	
 32.5828	  72.5874	   0.0000	
 42.9673	  68.6244	   0.0000	
 31.7033	  70.4756	   0.0000	
 50.4512	  95.6182	   0.0000	
 50.2557	  96.3485	   0.0000	
 26.5773	  68.9532	   0.0000	
 22.0626	  71.2793	   0.0000	
 40.9593	  77.8939	   0.0000	
 12.3939	 100.9978	   0.0000	
 20.5292	 127.8230	   0.0000	
 14.1758	 142.5555	   0.0000	
 56.1768	 122.3305	   0.0000	
  9.0034	  56.3066	   0.0000	
 25.2259	  69.7108	   0.0000	
 -0.4898	  80.9627	   0.0000	
  5.8547	  85.2248	   0.0000	
 -5.8905	  85.3300	   0.0000	
  6.2451	  88.9066	   0.0000	
 37.5454	  81.1891	   0.0000	
  0.0000	  -0.0000	   0.0000	
 -0.0000	  -0.0000	   0.0000	
 -0.0000	  -0.0000	   0.0000	
 -0.0000	   0.0000	   0.0000	
  0.0000	   0.0000	   0.0000	
 -0.0000	   0.0000	   0.0000	
  0.0000	  -0.0000	   0.0000	
 50.0000	  50.0000	   0.0000	
 50.0000	   0.0000	   0.0000	
 74.4542	  47.5514	   0.0000	
 53.8499	  42.4400	   0.0000	
 78.7179	  57.8795	   0.0000	
 49.5549	  81.3927	   0.0000	
 50.8907	  73.7218	   0.0000	
 65.6467	  93.6110	   0.0000	
 59.9973	  66.0664	   0.0000	
 59.2223	  80.6636	   0.0000	
 33.4659	  75.0413	   0.0000	
 50.3552	  71.2256	   0.0000	
 33.0346	  60.7946	   0.0000	
 81.9232	  83.4344	   0.0000	
 11.8215	  52.3288	   0.0000	
 87.2135	  62.8046	   0.0000	
 -0.0000	  -0.0000	   0.0000	
 -0.0000	   0.0000	   0.0000	
 45.4949	  50.0000	   0.0000	
 88.8025	 154.9655	   0.0000	
 63.5605	  43.4755	   0.0000	
 13.6830	 116.6081	   0.0000	
 39.2596	  53.2475	   0.0000	
 23.0065	  99.9771	   0.0000	
 52.2345	  49.3301	   0.0000	
 33.5654	  93.0988	   0.0000	
 38.4243	  46.2113	   0.0000	
 30.4798	  82.1450	   0.0000	
 43.9202	  38.2058	   0.0000	
 41.8929	  63.9556	   0.0000	
 19.7449	  34.2911	   0.0000	
 74.6509	  47.6372	   0.0000	
 63.3909	   1.4571	   0.0000	
 23.7641	   2.1468	   0.0000	
 -0.0000	   0.0000	   0.0000	
  0.0000	  -0.0000	   0.0000	
 72.6161	  50.0000	   0.0000	
-29.0604	  65.0245	   0.0000	
 43.5791	  54.5909	   0.0000	
 13.1040	  73.3011	   0.0000	
 43.7001	  54.3187	   0.0000	
  7.4285	  69.0791	   0.0000	
 54.6928	  56.8770	   0.0000	
 18.6030	  63.1464	   0.0000	
 53.8959	  57.2708	   0.0000	
  5.8909	  57.2817	   0.0000	
 56.5416	  59.4113	   0.0000	
 12.4576	  52.9061	   0.0000	
 68.6782	  54.8544	   0.0000	
  7.7053	  33.5467	   0.0000	
 85.5552	  64.5841	   0.0000	
  5.0301	  37.5065	   0.0000	
 27.4127	  58.0572	   0.0000	
  7.7914	  48.5054	   0.0000	
 47.9557	  50.0000	   0.0000	
  7.2169	  57.2442	   0.0000	
 44.9714	  50.3393	   0.0000	
  7.8404	  56.2251	   0.0000	
 47.1484	  50.1522	   0.0000	
  5.7282	  56.2891	   0.0000	
 42.4167	  50.5254	   0.0000	
  6.8113	  57.9787	   0.0000	
 46.4557	  53.5975	   0.0000	
 12.6331	  60.7070	   0.0000	
 39.6649	  56.1180	   0.0000	
 17.4374	  62.4791	   0.0000	
 48.5072	  64.5017	   0.0000	
 -2.7300	  69.1309	   0.0000	
 54.2813	  77.8860	   0.0000	
 19.4001	  71.2106	   0.0000	
 33.7655	  93.5191	   0.0000	
 24.2374	  75.2177	   0.0000	
 44.6395	  50.0000	   0.0000	
  0.1659	  46.3714	   0.0000	
 45.0122	  51.4591	   0.0000	
  5.1479	  46.3326	   0.0000	
 43.8692	  51.4266	   0.0000	
  4.8581	  47.9774	   0.0000	
 41.7879	  51.3618	   0.0000	
  9.0769	  49.3896	   0.0000	
 40.7435	  51.9543	   0.0000	
 13.2090	  50.4600	   0.0000	
 39.4821	  53.0214	   0.0000	
 16.1747	  50.1555	   0.0000	
 38.9744	  52.6569	   0.0000	
  9.3026	  52.5127	   0.0000	
 46.9188	  59.3844	   0.0000	
 18.3838	  62.5273	   0.0000	
 20.8496	  63.8274	   0.0000	
 29.7076	  61.0476	   0.0000	
 61.4239	  50.0000	   0.0000	
  0.3996	  29.7031	   0.0000	
 53.3267	  45.8502	   0.0000	
  3.6750	  33.2129	   0.0000	
 44.3574	  41.3282	   0.0000	
  7.1146	  36.6119	   0.0000	
 45.1517	  45.4600	   0.0000	
  8.8104	  39.8514	   0.0000	
 41.2756	  46.1149	   0.0000	
 14.0709	  42.9534	   0.0000	
 39.3207	  48.7589	   0.0000	
 16.8255	  45.9360	   0.0000	
 37.8450	  51.0154	   0.0000	
 15.2681	  50.6792	   0.0000	
 37.3001	  52.8639	   0.0000	
 29.2564	  53.3750	   0.0000	
 17.3523	  58.9477	   0.0000	
 28.4557	  63.0041	   0.0000	
  0.0000	   0.0000	   0.0000	
  0.0000	   0.0000	   0.0000	
  0.0000	  -0.0000	   0.0000	
  0.0000	   0.0000	   0.0000	
  0.0000	  -0.0000	   0.0000	
 -0.0000	  -0.0000	   0.0000	
  0.0000	   0.0000	   0.0000	
  0.0000	   0.0000	   0.0000	
  1.1186	  54.6762	   0.0000	
 -8.9628	  51.9509	   0.0000	
 -9.9834	  54.6501	   0.0000	
 26.2832	  49.9098	   0.0000	
  0.0000	   0.0000	   0.0000	
  0.0000	   0.0000	   0.0000	
 23.2825	  94.9533	   0.0000	
 16.8877	  79.8962	   0.0000	
 11.8832	  90.9565	   0.0000	
 19.9061	  82.4444	   0.0000	
  0.0000	   0.0000	   0.0000	
  0.0000	   0.0000	   0.0000	
 19.2609	  64.8861	   0.0000	
 27.6612	  62.4768	   0.0000	
 38.9550	  64.4028	   0.0000	
 39.0635	  61.1619	   0.0000	
  0.0000	   0.0000	   0.0000	
  0.0000	   0.0000	   0.0000	
 27.4339	  57.9865	   0.0000	
 22.8938	  63.2184	   0.0000	
 34.0883	  57.0248	   0.0000	
 25.4753	  61.7345	   0.0000	
 -0.0000	   0.0000	   0.0000	
 -0.0000	  -0.0000	   0.0000	
  0.0000	  -0.0000	   0.0000	
 -1.0775	  53.6600	   0.0000	
-17.5767	  54.7718	   0.0000	
 -2.8364	  54.6236	   0.0000	
 18.0822	  85.3333	   0.0000	
 29.4943	  84.2207	   0.0000	
  2.2727	  86.3960	   0.0000	
 22.4223	  64.5544	   0.0000	
 42.6123	  62.6973	   0.0000	
 36.3016	  62.6532	   0.0000	
 24.0181	  59.3960	   0.0000	
 28.9266	  58.9327	   0.0000	
 26.6191	  60.2677	   0.0000	
 29.7580	  54.2206	   0.0000	
 28.0732	  50.7258	   0.0000	
 22.7586	  50.5530	   0.0000	
 23.8385	  48.3184	   0.0000	
 29.6870	  51.0460	   0.0000	
 27.2689	  48.7521	   0.0000	
 37.4449	  51.8606	   0.0000	
 24.7599	  51.7832	   0.0000	
 30.7703	  53.4602	   0.0000	
 24.5094	  49.3647	   0.0000	
 27.1919	  49.4831	   0.0000	
 25.3195	  50.6126	   0.0000	
 37.1890	  48.2893	   0.0000	
 17.5102	  48.1815	   0.0000	
 33.8611	  50.2865	   0.0000	
 24.2258	  46.5368	   0.0000	
 31.1071	  50.2458	   0.0000	
 25.7014	  47.3645	   0.0000	
 38.2403	  45.8352	   0.0000	
 17.6737	  43.0417	   0.0000	
 35.2387	  46.9663	   0.0000	
 20.3753	  45.4587	   0.0000	
 32.0394	  46.4394	   0.0000	
 25.5835	  44.9850	   0.0000	
 39.5846	  45.3412	   0.0000	
 16.4356	  40.4064	   0.0000	
 36.8529	  44.8779	   0.0000	
 20.2008	  41.1408	   0.0000	
 32.9090	  44.1286	   0.0000	
 24.6119	  43.0413	   0.0000	
 42.0795	  44.6994	   0.0000	
 12.5109	  38.5080	   0.0000	
 38.1639	  42.3408	   0.0000	
 19.4943	  37.2694	   0.0000	
 34.0072	  43.1036	   0.0000	
 24.3806	  39.6544	   0.0000	
 42.0488	  41.2431	   0.0000	
 10.5920	  34.6933	   0.0000	
 40.3997	  41.4367	   0.0000	
 17.6175	  36.0808	   0.0000	
 34.6403	  40.6694	   0.0000	
 24.9376	  36.2857	   0.0000	
 46.4360	  46.6506	   0.0000	
  8.4557	  30.2211	   0.0000	
 41.6737	  39.0195	   0.0000	
 16.1331	  31.3033	   0.0000	
 35.8519	  37.7706	   0.0000	
 23.7169	  32.9197	   0.0000	
 29.0107	  50.9749	   0.0000	
 28.7260	  50.0928	   0.0000	
 28.7231	  47.8948	   0.0000	
 29.3726	  45.6266	   0.0000	
 30.3094	  43.3411	   0.0000	
 30.6991	  41.3630	   0.0000	
 31.7243	  39.0574	   0.0000	
 32.6055	  32.9380	   0.0000	
 65.8186	  50.0000	   0.0000	
 57.2613	  40.5875	   0.0000	
 45.7612	  34.9610	   0.0000	
 43.5117	  26.2965	   0.0000	
 33.2480	  25.0747	   0.0000	
 25.7583	  23.6063	   0.0000	
 17.1861	  23.1945	   0.0000	
  8.9292	  23.1847	   0.0000	
  0.3355	  23.3122	   0.0000	
 77.7539	  50.0000	   0.0000	
 68.3038	  38.8450	   0.0000	
 61.2203	  21.2511	   0.0000	
 46.6846	  14.9686	   0.0000	
 35.4460	  11.4685	   0.0000	
 26.3978	   9.8023	   0.0000	
 17.1094	   9.1573	   0.0000	
  8.9629	   8.8183	   0.0000	
 -0.1676	   8.9698	   0.0000	
 93.4215	  50.0000	   0.0000	
 94.0605	  27.4358	   0.0000	
 72.7198	  16.0303	   0.0000	
 53.2173	   9.6969	   0.0000	
 39.1979	   5.7439	   0.0000	
 28.1982	   3.8134	   0.0000	
 18.0881	   2.7145	   0.0000	
  9.0745	   2.4190	   0.0000	
  1.2622	   1.2346	   0.0000	
