# vtk DataFile Version 3.0 
Results 
ASCII 
DATASET UNSTRUCTURED_GRID 
POINTS 	    1451 float 
  0.0000	   0.6000	  0.0000	 
  0.0000	   1.2000	  0.0000	 
  0.0000	   1.8000	  0.0000	 
  0.0000	   2.4000	  0.0000	 
  0.0000	   3.0000	  0.0000	 
  0.0000	   3.6000	  0.0000	 
  0.0000	   4.2000	  0.0000	 
  0.0000	   4.8000	  0.0000	 
  0.0000	   5.4000	  0.0000	 
  0.0000	   6.0000	  0.0000	 
  0.0000	   6.6000	  0.0000	 
  0.0000	   7.2000	  0.0000	 
  0.0000	   7.8000	  0.0000	 
  0.0000	   8.4000	  0.0000	 
  0.0000	   9.0000	  0.0000	 
  0.0000	   9.6000	  0.0000	 
  0.0000	  10.2000	  0.0000	 
  0.0000	  10.8000	  0.0000	 
  0.0000	  11.4000	  0.0000	 
  0.2250	   0.8475	  0.0000	 
  0.2250	   1.4200	  0.0000	 
  0.2250	   1.9925	  0.0000	 
  0.2250	   2.5650	  0.0000	 
  0.2250	   3.1375	  0.0000	 
  0.2250	   3.7100	  0.0000	 
  0.2250	   4.2825	  0.0000	 
  0.2250	   4.8550	  0.0000	 
  0.2250	   5.4275	  0.0000	 
  0.2250	   6.0000	  0.0000	 
  0.2250	   6.5725	  0.0000	 
  0.2250	   7.1450	  0.0000	 
  0.2250	   7.7175	  0.0000	 
  0.2250	   8.2900	  0.0000	 
  0.2250	   8.8625	  0.0000	 
  0.2250	   9.4350	  0.0000	 
  0.2250	  10.0075	  0.0000	 
  0.2250	  10.5800	  0.0000	 
  0.2250	  11.1525	  0.0000	 
  0.4500	   1.0950	  0.0000	 
  0.4500	   1.6400	  0.0000	 
  0.4500	   2.1850	  0.0000	 
  0.4500	   2.7300	  0.0000	 
  0.4500	   3.2750	  0.0000	 
  0.4500	   3.8200	  0.0000	 
  0.4500	   4.3650	  0.0000	 
  0.4500	   4.9100	  0.0000	 
  0.4500	   5.4550	  0.0000	 
  0.4500	   6.0000	  0.0000	 
  0.4500	   6.5450	  0.0000	 
  0.4500	   7.0900	  0.0000	 
  0.4500	   7.6350	  0.0000	 
  0.4500	   8.1800	  0.0000	 
  0.4500	   8.7250	  0.0000	 
  0.4500	   9.2700	  0.0000	 
  0.4500	   9.8150	  0.0000	 
  0.4500	  10.3600	  0.0000	 
  0.4500	  10.9050	  0.0000	 
  0.6750	   1.3425	  0.0000	 
  0.6750	   1.8600	  0.0000	 
  0.6750	   2.3775	  0.0000	 
  0.6750	   2.8950	  0.0000	 
  0.6750	   3.4125	  0.0000	 
  0.6750	   3.9300	  0.0000	 
  0.6750	   4.4475	  0.0000	 
  0.6750	   4.9650	  0.0000	 
  0.6750	   5.4825	  0.0000	 
  0.6750	   6.0000	  0.0000	 
  0.6750	   6.5175	  0.0000	 
  0.6750	   7.0350	  0.0000	 
  0.6750	   7.5525	  0.0000	 
  0.6750	   8.0700	  0.0000	 
  0.6750	   8.5875	  0.0000	 
  0.6750	   9.1050	  0.0000	 
  0.6750	   9.6225	  0.0000	 
  0.6750	  10.1400	  0.0000	 
  0.6750	  10.6575	  0.0000	 
  0.9000	   1.5900	  0.0000	 
  0.9000	   2.0800	  0.0000	 
  0.9000	   2.5700	  0.0000	 
  0.9000	   3.0600	  0.0000	 
  0.9000	   3.5500	  0.0000	 
  0.9000	   4.0400	  0.0000	 
  0.9000	   4.5300	  0.0000	 
  0.9000	   5.0200	  0.0000	 
  0.9000	   5.5100	  0.0000	 
  0.9000	   6.0000	  0.0000	 
  0.9000	   6.4900	  0.0000	 
  0.9000	   6.9800	  0.0000	 
  0.9000	   7.4700	  0.0000	 
  0.9000	   7.9600	  0.0000	 
  0.9000	   8.4500	  0.0000	 
  0.9000	   8.9400	  0.0000	 
  0.9000	   9.4300	  0.0000	 
  0.9000	   9.9200	  0.0000	 
  0.9000	  10.4100	  0.0000	 
  1.1250	   1.8375	  0.0000	 
  1.1250	   2.3000	  0.0000	 
  1.1250	   2.7625	  0.0000	 
  1.1250	   3.2250	  0.0000	 
  1.1250	   3.6875	  0.0000	 
  1.1250	   4.1500	  0.0000	 
  1.1250	   4.6125	  0.0000	 
  1.1250	   5.0750	  0.0000	 
  1.1250	   5.5375	  0.0000	 
  1.1250	   6.0000	  0.0000	 
  1.1250	   6.4625	  0.0000	 
  1.1250	   6.9250	  0.0000	 
  1.1250	   7.3875	  0.0000	 
  1.1250	   7.8500	  0.0000	 
  1.1250	   8.3125	  0.0000	 
  1.1250	   8.7750	  0.0000	 
  1.1250	   9.2375	  0.0000	 
  1.1250	   9.7000	  0.0000	 
  1.1250	  10.1625	  0.0000	 
  1.3500	   2.0850	  0.0000	 
  1.3500	   2.5200	  0.0000	 
  1.3500	   2.9550	  0.0000	 
  1.3500	   3.3900	  0.0000	 
  1.3500	   3.8250	  0.0000	 
  1.3500	   4.2600	  0.0000	 
  1.3500	   4.6950	  0.0000	 
  1.3500	   5.1300	  0.0000	 
  1.3500	   5.5650	  0.0000	 
  1.3500	   6.0000	  0.0000	 
  1.3500	   6.4350	  0.0000	 
  1.3500	   6.8700	  0.0000	 
  1.3500	   7.3050	  0.0000	 
  1.3500	   7.7400	  0.0000	 
  1.3500	   8.1750	  0.0000	 
  1.3500	   8.6100	  0.0000	 
  1.3500	   9.0450	  0.0000	 
  1.3500	   9.4800	  0.0000	 
  1.3500	   9.9150	  0.0000	 
  1.5750	   2.3325	  0.0000	 
  1.5750	   2.7400	  0.0000	 
  1.5750	   3.1475	  0.0000	 
  1.5750	   3.5550	  0.0000	 
  1.5750	   3.9625	  0.0000	 
  1.5750	   4.3700	  0.0000	 
  1.5750	   4.7775	  0.0000	 
  1.5750	   5.1850	  0.0000	 
  1.5750	   5.5925	  0.0000	 
  1.5750	   6.0000	  0.0000	 
  1.5750	   6.4075	  0.0000	 
  1.5750	   6.8150	  0.0000	 
  1.5750	   7.2225	  0.0000	 
  1.5750	   7.6300	  0.0000	 
  1.5750	   8.0375	  0.0000	 
  1.5750	   8.4450	  0.0000	 
  1.5750	   8.8525	  0.0000	 
  1.5750	   9.2600	  0.0000	 
  1.5750	   9.6675	  0.0000	 
  1.8000	   2.5800	  0.0000	 
  1.8000	   2.9600	  0.0000	 
  1.8000	   3.3400	  0.0000	 
  1.8000	   3.7200	  0.0000	 
  1.8000	   4.1000	  0.0000	 
  1.8000	   4.4800	  0.0000	 
  1.8000	   4.8600	  0.0000	 
  1.8000	   5.2400	  0.0000	 
  1.8000	   5.6200	  0.0000	 
  1.8000	   6.0000	  0.0000	 
  1.8000	   6.3800	  0.0000	 
  1.8000	   6.7600	  0.0000	 
  1.8000	   7.1400	  0.0000	 
  1.8000	   7.5200	  0.0000	 
  1.8000	   7.9000	  0.0000	 
  1.8000	   8.2800	  0.0000	 
  1.8000	   8.6600	  0.0000	 
  1.8000	   9.0400	  0.0000	 
  1.8000	   9.4200	  0.0000	 
  2.0250	   2.8275	  0.0000	 
  2.0250	   3.1800	  0.0000	 
  2.0250	   3.5325	  0.0000	 
  2.0250	   3.8850	  0.0000	 
  2.0250	   4.2375	  0.0000	 
  2.0250	   4.5900	  0.0000	 
  2.0250	   4.9425	  0.0000	 
  2.0250	   5.2950	  0.0000	 
  2.0250	   5.6475	  0.0000	 
  2.0250	   6.0000	  0.0000	 
  2.0250	   6.3525	  0.0000	 
  2.0250	   6.7050	  0.0000	 
  2.0250	   7.0575	  0.0000	 
  2.0250	   7.4100	  0.0000	 
  2.0250	   7.7625	  0.0000	 
  2.0250	   8.1150	  0.0000	 
  2.0250	   8.4675	  0.0000	 
  2.0250	   8.8200	  0.0000	 
  2.0250	   9.1725	  0.0000	 
  2.2500	   3.0750	  0.0000	 
  2.2500	   3.4000	  0.0000	 
  2.2500	   3.7250	  0.0000	 
  2.2500	   4.0500	  0.0000	 
  2.2500	   4.3750	  0.0000	 
  2.2500	   4.7000	  0.0000	 
  2.2500	   5.0250	  0.0000	 
  2.2500	   5.3500	  0.0000	 
  2.2500	   5.6750	  0.0000	 
  2.2500	   6.0000	  0.0000	 
  2.2500	   6.3250	  0.0000	 
  2.2500	   6.6500	  0.0000	 
  2.2500	   6.9750	  0.0000	 
  2.2500	   7.3000	  0.0000	 
  2.2500	   7.6250	  0.0000	 
  2.2500	   7.9500	  0.0000	 
  2.2500	   8.2750	  0.0000	 
  2.2500	   8.6000	  0.0000	 
  2.2500	   8.9250	  0.0000	 
  2.4750	   3.3225	  0.0000	 
  2.4750	   3.6200	  0.0000	 
  2.4750	   3.9175	  0.0000	 
  2.4750	   4.2150	  0.0000	 
  2.4750	   4.5125	  0.0000	 
  2.4750	   4.8100	  0.0000	 
  2.4750	   5.1075	  0.0000	 
  2.4750	   5.4050	  0.0000	 
  2.4750	   5.7025	  0.0000	 
  2.4750	   6.0000	  0.0000	 
  2.4750	   6.2975	  0.0000	 
  2.4750	   6.5950	  0.0000	 
  2.4750	   6.8925	  0.0000	 
  2.4750	   7.1900	  0.0000	 
  2.4750	   7.4875	  0.0000	 
  2.4750	   7.7850	  0.0000	 
  2.4750	   8.0825	  0.0000	 
  2.4750	   8.3800	  0.0000	 
  2.4750	   8.6775	  0.0000	 
  2.7000	   3.5700	  0.0000	 
  2.7000	   3.8400	  0.0000	 
  2.7000	   4.1100	  0.0000	 
  2.7000	   4.3800	  0.0000	 
  2.7000	   4.6500	  0.0000	 
  2.7000	   4.9200	  0.0000	 
  2.7000	   5.1900	  0.0000	 
  2.7000	   5.4600	  0.0000	 
  2.7000	   5.7300	  0.0000	 
  2.7000	   6.0000	  0.0000	 
  2.7000	   6.2700	  0.0000	 
  2.7000	   6.5400	  0.0000	 
  2.7000	   6.8100	  0.0000	 
  2.7000	   7.0800	  0.0000	 
  2.7000	   7.3500	  0.0000	 
  2.7000	   7.6200	  0.0000	 
  2.7000	   7.8900	  0.0000	 
  2.7000	   8.1600	  0.0000	 
  2.7000	   8.4300	  0.0000	 
  2.9250	   3.8175	  0.0000	 
  2.9250	   4.0600	  0.0000	 
  2.9250	   4.3025	  0.0000	 
  2.9250	   4.5450	  0.0000	 
  2.9250	   4.7875	  0.0000	 
  2.9250	   5.0300	  0.0000	 
  2.9250	   5.2725	  0.0000	 
  2.9250	   5.5150	  0.0000	 
  2.9250	   5.7575	  0.0000	 
  2.9250	   6.0000	  0.0000	 
  2.9250	   6.2425	  0.0000	 
  2.9250	   6.4850	  0.0000	 
  2.9250	   6.7275	  0.0000	 
  2.9250	   6.9700	  0.0000	 
  2.9250	   7.2125	  0.0000	 
  2.9250	   7.4550	  0.0000	 
  2.9250	   7.6975	  0.0000	 
  2.9250	   7.9400	  0.0000	 
  2.9250	   8.1825	  0.0000	 
  3.1500	   4.0650	  0.0000	 
  3.1500	   4.2800	  0.0000	 
  3.1500	   4.4950	  0.0000	 
  3.1500	   4.7100	  0.0000	 
  3.1500	   4.9250	  0.0000	 
  3.1500	   5.1400	  0.0000	 
  3.1500	   5.3550	  0.0000	 
  3.1500	   5.5700	  0.0000	 
  3.1500	   5.7850	  0.0000	 
  3.1500	   6.0000	  0.0000	 
  3.1500	   6.2150	  0.0000	 
  3.1500	   6.4300	  0.0000	 
  3.1500	   6.6450	  0.0000	 
  3.1500	   6.8600	  0.0000	 
  3.1500	   7.0750	  0.0000	 
  3.1500	   7.2900	  0.0000	 
  3.1500	   7.5050	  0.0000	 
  3.1500	   7.7200	  0.0000	 
  3.1500	   7.9350	  0.0000	 
  3.3750	   4.3125	  0.0000	 
  3.3750	   4.5000	  0.0000	 
  3.3750	   4.6875	  0.0000	 
  3.3750	   4.8750	  0.0000	 
  3.3750	   5.0625	  0.0000	 
  3.3750	   5.2500	  0.0000	 
  3.3750	   5.4375	  0.0000	 
  3.3750	   5.6250	  0.0000	 
  3.3750	   5.8125	  0.0000	 
  3.3750	   6.0000	  0.0000	 
  3.3750	   6.1875	  0.0000	 
  3.3750	   6.3750	  0.0000	 
  3.3750	   6.5625	  0.0000	 
  3.3750	   6.7500	  0.0000	 
  3.3750	   6.9375	  0.0000	 
  3.3750	   7.1250	  0.0000	 
  3.3750	   7.3125	  0.0000	 
  3.3750	   7.5000	  0.0000	 
  3.3750	   7.6875	  0.0000	 
  3.6000	   4.5600	  0.0000	 
  3.6000	   4.7200	  0.0000	 
  3.6000	   4.8800	  0.0000	 
  3.6000	   5.0400	  0.0000	 
  3.6000	   5.2000	  0.0000	 
  3.6000	   5.3600	  0.0000	 
  3.6000	   5.5200	  0.0000	 
  3.6000	   5.6800	  0.0000	 
  3.6000	   5.8400	  0.0000	 
  3.6000	   6.0000	  0.0000	 
  3.6000	   6.1600	  0.0000	 
  3.6000	   6.3200	  0.0000	 
  3.6000	   6.4800	  0.0000	 
  3.6000	   6.6400	  0.0000	 
  3.6000	   6.8000	  0.0000	 
  3.6000	   6.9600	  0.0000	 
  3.6000	   7.1200	  0.0000	 
  3.6000	   7.2800	  0.0000	 
  3.6000	   7.4400	  0.0000	 
  3.8250	   4.8075	  0.0000	 
  3.8250	   4.9400	  0.0000	 
  3.8250	   5.0725	  0.0000	 
  3.8250	   5.2050	  0.0000	 
  3.8250	   5.3375	  0.0000	 
  3.8250	   5.4700	  0.0000	 
  3.8250	   5.6025	  0.0000	 
[...]
POINT_DATA 	    1451 
VECTORS U float 
 50.0000	   0.0000	   0.0000	
 50.0000	   0.0000	   0.0000	
 50.0000	   0.0000	   0.0000	
 50.0000	   0.0000	   0.0000	
 50.0000	  -0.0000	   0.0000	
 50.0000	  -0.0000	   0.0000	
 50.0000	   0.0000	   0.0000	
 50.0000	  -0.0000	   0.0000	
 50.0000	  -0.0000	   0.0000	
 50.0000	   0.0000	   0.0000	
 50.0000	  -0.0000	   0.0000	
 50.0000	  -0.0000	   0.0000	
 50.0000	   0.0000	   0.0000	
 50.0000	   0.0000	   0.0000	
 50.0000	  -0.0000	   0.0000	
 50.0000	  -0.0000	   0.0000	
 50.0000	   0.0000	   0.0000	
 50.0000	   0.0000	   0.0000	
 50.0000	  -0.0000	   0.0000	
 49.1893	   5.9123	   0.0000	
 50.2483	   5.9591	   0.0000	
 50.2052	   9.5447	   0.0000	
 49.8709	  17.5085	   0.0000	
 49.9697	   9.8856	   0.0000	
 49.8224	  17.2507	   0.0000	
 49.4473	  20.4521	   0.0000	
 49.2908	  25.5206	   0.0000	
 49.7339	  28.8419	   0.0000	
 49.9234	  30.4137	   0.0000	
 49.8374	  30.4310	   0.0000	
 50.6428	  29.4130	   0.0000	
 50.3122	  25.4807	   0.0000	
 50.1830	  23.4261	   0.0000	
 50.2973	  22.3873	   0.0000	
 49.9850	  14.6941	   0.0000	
 49.9970	  17.4052	   0.0000	
 49.3094	  14.7916	   0.0000	
 50.4370	  14.8924	   0.0000	
 50.3570	  11.1515	   0.0000	
 46.7101	  16.5166	   0.0000	
 43.7660	  30.4464	   0.0000	
 56.1068	  22.7460	   0.0000	
 44.4944	  30.6385	   0.0000	
 47.6899	  35.8808	   0.0000	
 45.9455	  45.7877	   0.0000	
 46.9819	  54.2095	   0.0000	
 48.4801	  58.4489	   0.0000	
 49.3793	  60.3577	   0.0000	
 50.1484	  60.6215	   0.0000	
 51.1945	  60.4134	   0.0000	
 53.7276	  54.9676	   0.0000	
 51.3851	  44.7563	   0.0000	
 50.3795	  43.3745	   0.0000	
 55.5805	  40.8553	   0.0000	
 47.8817	  30.6952	   0.0000	
 52.6279	  31.6975	   0.0000	
 50.3644	  31.4551	   0.0000	
 46.0451	  18.3244	   0.0000	
 39.3116	  40.0334	   0.0000	
 52.3475	  34.7897	   0.0000	
 48.5522	  43.8472	   0.0000	
 43.6724	  47.0231	   0.0000	
 42.5814	  58.0044	   0.0000	
 42.5681	  66.7019	   0.0000	
 45.3240	  70.4179	   0.0000	
 47.5824	  73.4102	   0.0000	
 47.6517	  76.6292	   0.0000	
 50.1887	  81.7915	   0.0000	
 51.1431	  80.7154	   0.0000	
 55.4398	  82.6386	   0.0000	
 57.6971	  76.0009	   0.0000	
 51.9386	  63.0359	   0.0000	
 53.7249	  59.9182	   0.0000	
 56.1244	  59.1725	   0.0000	
 50.5008	  48.5296	   0.0000	
 47.9558	  46.8656	   0.0000	
 26.8457	  43.2613	   0.0000	
 46.2519	  44.2421	   0.0000	
 49.4843	  52.2765	   0.0000	
 43.9474	  61.1885	   0.0000	
 38.9622	  59.7816	   0.0000	
 39.5067	  65.3066	   0.0000	
 41.2493	  67.4566	   0.0000	
 44.3885	  70.6206	   0.0000	
 46.5302	  72.4650	   0.0000	
 47.4043	  73.2493	   0.0000	
 47.4241	  73.1939	   0.0000	
 51.0058	  80.1166	   0.0000	
 53.6933	  79.3713	   0.0000	
 59.4102	  82.6216	   0.0000	
 59.3705	  78.9057	   0.0000	
 53.9117	  76.3416	   0.0000	
 56.8656	  77.3419	   0.0000	
 54.6162	  75.9500	   0.0000	
 55.3254	  63.3997	   0.0000	
 37.8629	  49.9786	   0.0000	
 44.6599	  61.6854	   0.0000	
 41.1911	  70.3811	   0.0000	
 46.2380	  70.1932	   0.0000	
 37.3810	  66.8456	   0.0000	
 39.4022	  66.3624	   0.0000	
 40.5270	  68.1104	   0.0000	
 43.9729	  69.0021	   0.0000	
 45.9008	  70.5582	   0.0000	
 46.5943	  72.1363	   0.0000	
 47.9913	  73.7533	   0.0000	
 47.1632	  72.1318	   0.0000	
 53.3244	  79.9721	   0.0000	
 56.8508	  78.8489	   0.0000	
 60.4461	  83.4030	   0.0000	
 52.3920	  87.6613	   0.0000	
 54.1383	  90.4435	   0.0000	
 56.6020	  93.7193	   0.0000	
 62.1352	  96.5078	   0.0000	
 35.4088	  67.7415	   0.0000	
 41.7646	  78.7930	   0.0000	
 43.7284	  74.2638	   0.0000	
 45.3436	  76.9505	   0.0000	
 38.3532	  70.3491	   0.0000	
 39.0483	  71.4007	   0.0000	
 40.9695	  70.7094	   0.0000	
 43.3489	  72.5199	   0.0000	
 45.4053	  74.1641	   0.0000	
 45.1672	  76.7389	   0.0000	
 46.8689	  79.8342	   0.0000	
 48.1603	  81.6454	   0.0000	
 48.0718	  79.8325	   0.0000	
 56.4483	  87.5720	   0.0000	
 57.3147	  86.8814	   0.0000	
 52.2478	  96.4509	   0.0000	
 51.1353	  98.3381	   0.0000	
 53.2377	 104.6539	   0.0000	
 51.0603	 113.9838	   0.0000	
 34.1509	  65.7332	   0.0000	
 45.5252	  68.9029	   0.0000	
 43.0652	  67.9818	   0.0000	
 45.6255	  69.6034	   0.0000	
 37.9187	  66.9743	   0.0000	
 40.1216	  65.9152	   0.0000	
 40.1438	  67.6653	   0.0000	
 42.6537	  70.1218	   0.0000	
 43.7921	  73.2167	   0.0000	
 44.5667	  74.6029	   0.0000	
 45.3894	  75.3325	   0.0000	
 46.7646	  78.3157	   0.0000	
 49.3224	  80.1118	   0.0000	
 50.3557	  76.7722	   0.0000	
 57.6133	  84.4317	   0.0000	
 50.1323	  86.5399	   0.0000	
 50.2879	  90.0188	   0.0000	
 48.8224	  92.4862	   0.0000	
 46.4676	 103.3819	   0.0000	
 39.5083	  60.0858	   0.0000	
 45.0078	  65.8028	   0.0000	
 42.7658	  64.6592	   0.0000	
 43.4571	  70.2506	   0.0000	
 39.1834	  65.6187	   0.0000	
 38.9067	  67.6015	   0.0000	
 39.2482	  69.5817	   0.0000	
 41.0247	  72.5844	   0.0000	
 43.0109	  74.5465	   0.0000	
 43.3933	  76.5050	   0.0000	
 45.0684	  78.4402	   0.0000	
 44.7786	  78.4984	   0.0000	
 47.7056	  81.8066	   0.0000	
 52.5209	  82.1358	   0.0000	
 51.1171	  78.1649	   0.0000	
 52.2987	  88.9326	   0.0000	
 49.0406	  86.1093	   0.0000	
 48.6428	  87.7554	   0.0000	
 41.3434	  95.3192	   0.0000	
 39.9307	  58.6579	   0.0000	
 44.0351	  64.1168	   0.0000	
 39.5035	  65.9185	   0.0000	
 44.3078	  68.0094	   0.0000	
 37.7018	  66.6680	   0.0000	
 37.9568	  68.4859	   0.0000	
 37.7101	  70.7811	   0.0000	
 40.1338	  72.9635	   0.0000	
 41.6789	  75.3790	   0.0000	
 41.8346	  77.9165	   0.0000	
 43.9839	  80.3514	   0.0000	
 44.8926	  81.7712	   0.0000	
 45.0976	  81.5304	   0.0000	
 51.0258	  83.4408	   0.0000	
 54.6039	  83.4128	   0.0000	
 45.2150	  83.0764	   0.0000	
 52.1872	  90.2039	   0.0000	
 49.1137	  87.1472	   0.0000	
 41.2576	  92.6392	   0.0000	
 39.1075	  59.0846	   0.0000	
 40.1824	  65.9196	   0.0000	
 40.8276	  64.3299	   0.0000	
 41.7808	  68.8990	   0.0000	
 36.4395	  67.9540	   0.0000	
 36.4681	  69.9627	   0.0000	
 36.7165	  71.7383	   0.0000	
 38.7358	  74.3389	   0.0000	
 40.1115	  76.9654	   0.0000	
 40.6739	  78.5888	   0.0000	
 42.5570	  79.6887	   0.0000	
 43.6448	  81.3631	   0.0000	
 45.4044	  82.6900	   0.0000	
 48.2971	  80.4059	   0.0000	
 53.0198	  82.2587	   0.0000	
 50.4539	  85.6274	   0.0000	
 42.8598	  83.9536	   0.0000	
 53.1283	  89.8431	   0.0000	
 44.2207	  91.1715	   0.0000	
 35.5321	  61.4572	   0.0000	
 42.2865	  63.8144	   0.0000	
 37.7458	  63.8368	   0.0000	
 39.7468	  68.3849	   0.0000	
 34.7976	  67.9051	   0.0000	
 35.2339	  70.0576	   0.0000	
 35.5593	  71.6037	   0.0000	
 37.1221	  73.8471	   0.0000	
 38.7650	  76.0534	   0.0000	
 38.9751	  78.4729	   0.0000	
 42.2363	  80.7320	   0.0000	
 42.2293	  80.7297	   0.0000	
 44.3510	  82.3740	   0.0000	
 49.2538	  81.5173	   0.0000	
 49.5033	  79.9798	   0.0000	
 49.4343	  85.6099	   0.0000	
 47.8853	  88.1748	   0.0000	
 42.3376	  86.8236	   0.0000	
 49.9450	  93.6940	   0.0000	
 39.8726	  60.7998	   0.0000	
 38.6208	  64.4813	   0.0000	
 35.4390	  65.6267	   0.0000	
 36.7867	  70.3158	   0.0000	
 33.2784	  70.5614	   0.0000	
 34.2169	  72.2587	   0.0000	
 34.2598	  73.9876	   0.0000	
 35.7272	  76.2058	   0.0000	
 36.7839	  78.9603	   0.0000	
 36.0135	  82.6648	   0.0000	
 40.2208	  86.0760	   0.0000	
 42.4017	  87.5809	   0.0000	
 42.7992	  86.9134	   0.0000	
 48.0680	  86.2065	   0.0000	
 50.5136	  86.6021	   0.0000	
 44.7209	  89.1863	   0.0000	
 45.8760	  94.9955	   0.0000	
 49.6562	  93.0113	   0.0000	
 37.9768	  92.3707	   0.0000	
 36.0556	  57.5498	   0.0000	
 34.0941	  59.9411	   0.0000	
 32.1031	  62.4576	   0.0000	
 33.7991	  68.2323	   0.0000	
 31.7380	  69.6623	   0.0000	
 32.9222	  71.9999	   0.0000	
 32.1191	  74.4890	   0.0000	
 33.4572	  77.9629	   0.0000	
 33.2190	  82.3504	   0.0000	
 36.9050	  81.4109	   0.0000	
 37.7660	  79.9123	   0.0000	
 40.5581	  82.2352	   0.0000	
 43.7014	  83.8346	   0.0000	
 46.8787	  81.3362	   0.0000	
 47.9988	  83.2541	   0.0000	
 46.0312	  87.9962	   0.0000	
 39.9109	  90.9560	   0.0000	
 50.5078	  87.5160	   0.0000	
 52.0722	  80.4252	   0.0000	
 31.3311	  60.6115	   0.0000	
 28.9226	  63.1599	   0.0000	
 27.4846	  66.6126	   0.0000	
 31.2361	  70.6994	   0.0000	
 29.3856	  71.9025	   0.0000	
 29.6506	  75.6912	   0.0000	
 29.4496	  78.4267	   0.0000	
 28.9132	  81.9170	   0.0000	
 34.7438	  81.2380	   0.0000	
 34.5852	  82.1208	   0.0000	
 39.8399	  85.1067	   0.0000	
 37.1279	  82.8353	   0.0000	
 41.5847	  84.9950	   0.0000	
 47.5688	  84.0153	   0.0000	
 43.3096	  86.7815	   0.0000	
 42.6579	  93.6101	   0.0000	
 41.5737	  97.7930	   0.0000	
 47.2802	  89.6249	   0.0000	
 57.9855	  80.3349	   0.0000	
 25.9571	  58.3106	   0.0000	
 22.2640	  64.0801	   0.0000	
 26.9663	  67.3764	   0.0000	
 28.4078	  71.3729	   0.0000	
 25.2004	  73.7425	   0.0000	
 26.9585	  76.8304	   0.0000	
 26.2532	  78.6857	   0.0000	
 32.5940	  76.2731	   0.0000	
 34.6242	  75.4187	   0.0000	
 26.9230	  81.9027	   0.0000	
 35.1906	  88.7756	   0.0000	
 39.7184	  92.3811	   0.0000	
 39.3777	  90.4423	   0.0000	
 43.1976	  91.7876	   0.0000	
 42.4691	  98.2987	   0.0000	
 34.8424	 104.6112	   0.0000	
 40.3563	 104.2633	   0.0000	
 54.8959	  92.7719	   0.0000	
 55.3775	  81.3571	   0.0000	
 20.1326	  53.5425	   0.0000	
 22.9449	  56.3062	   0.0000	
 11.3597	  66.6452	   0.0000	
 20.0703	  81.0079	   0.0000	
 22.2732	  86.5978	   0.0000	
 24.5964	  89.8982	   0.0000	
 32.3937	  88.6047	   0.0000	
 34.4956	  87.7706	   0.0000	
 24.4050	  95.0537	   0.0000	
 30.5442	  92.8522	   0.0000	
 26.3215	  89.8502	   0.0000	
 31.6488	  97.0993	   0.0000	
 42.4318	 101.7584	   0.0000	
 37.1829	 100.0736	   0.0000	
 34.4276	 106.9890	   0.0000	
 34.0764	 110.6472	   0.0000	
 49.5062	  99.0767	   0.0000	
 46.3395	  86.9738	   0.0000	
 66.1537	  73.5049	   0.0000	
  1.9308	  45.7990	   0.0000	
 -5.8319	  53.6709	   0.0000	
  9.4794	  62.5813	   0.0000	
 14.7463	  68.3141	   0.0000	
 19.0522	  72.1258	   0.0000	
 31.5419	  73.8063	   0.0000	
 33.9053	  73.8853	   0.0000	
 18.9217	  79.7892	   0.0000	
 27.9943	  79.9277	   0.0000	
 21.0851	  84.8143	   0.0000	
 31.1606	  91.6461	   0.0000	
 17.0284	  90.8283	   0.0000	
 27.5172	  99.5030	   0.0000	
 43.1362	 104.0449	   0.0000	
 24.6118	 113.2873	   0.0000	
 33.4827	 120.2381	   0.0000	
 32.8110	 114.8288	   0.0000	
 65.1796	 107.5007	   0.0000	
 73.8446	  88.6233	   0.0000	
 -7.3790	  62.8112	   0.0000	
  2.8783	  70.5460	   0.0000	
  7.9516	  76.1488	   0.0000	
 19.5796	  80.1537	   0.0000	
 29.5135	  84.6633	   0.0000	
 28.8318	  85.1117	   0.0000	
 11.2822	  93.8951	   0.0000	
 20.8105	  97.9641	   0.0000	
 16.5163	 104.8196	   0.0000	
 12.6759	 109.7749	   0.0000	
 15.2635	 114.2929	   0.0000	
 21.5180	 122.3992	   0.0000	
  2.8981	 127.3735	   0.0000	
 20.2987	 133.6216	   0.0000	
 14.8057	 147.3016	   0.0000	
  8.8880	 159.0497	   0.0000	
 25.6799	 153.5194	   0.0000	
 54.1125	 137.2190	   0.0000	
 67.0445	 111.9659	   0.0000	
 -2.1015	  28.0968	   0.0000	
  4.0471	  33.2159	   0.0000	
 11.9950	  38.9022	   0.0000	
 23.8338	  46.0497	   0.0000	
  0.5401	  54.8335	   0.0000	
  0.5085	  55.6180	   0.0000	
  8.2586	  59.8186	   0.0000	
  0.4742	  63.5981	   0.0000	
  6.2209	  66.8951	   0.0000	
  0.4170	  69.7615	   0.0000	
  5.7489	  72.6080	   0.0000	
  0.6917	  75.6277	   0.0000	
  6.6003	  79.0554	   0.0000	
 -0.9322	  81.5686	   0.0000	
  0.1839	  81.0789	   0.0000	
 -4.3916	  85.6411	   0.0000	
 -0.6495	  84.5284	   0.0000	
 21.6598	  80.4611	   0.0000	
 55.2848	  71.6452	   0.0000	
 -0.0000	  -0.0000	   0.0000	
  0.0000	   0.0000	   0.0000	
 -0.0000	   0.0000	   0.0000	
 -0.0000	   0.0000	   0.0000	
  0.0000	  -0.0000	   0.0000	
 -0.0000	   0.0000	   0.0000	
  0.0000	   0.0000	   0.0000	
  0.0000	  -0.0000	   0.0000	
 -0.0000	  -0.0000	   0.0000	
  0.0000	   0.0000	   0.0000	
  0.0000	   0.0000	   0.0000	
  0.0000	  -0.0000	   0.0000	
 -0.0000	   0.0000	   0.0000	
 -0.0000	   0.0000	   0.0000	
 -0.0000	  -0.0000	   0.0000	
 -0.0000	  -0.0000	   0.0000	
  0.0000	  -0.0000	   0.0000	
 -0.0000	  -0.0000	   0.0000	
  0.0000	   0.0000	   0.0000	
 50.0000	  50.0000	   0.0000	
 50.0000	  -0.0000	   0.0000	
 68.2365	  50.1114	   0.0000	
 49.9961	  15.6403	   0.0000	
 85.7906	  50.2291	   0.0000	
 49.0118	  31.2495	   0.0000	
 83.3408	  54.8752	   0.0000	
 50.3299	  47.2417	   0.0000	
 83.3047	  58.5128	   0.0000	
 50.8145	  63.2292	   0.0000	
 56.4128	  78.1132	   0.0000	
 47.4660	  77.0957	   0.0000	
 50.1767	  79.7880	   0.0000	
 79.0893	 105.0200	   0.0000	
 46.7219	  77.8559	   0.0000	
 66.0142	  92.6145	   0.0000	
 44.7967	  75.0167	   0.0000	
 58.7328	  84.8189	   0.0000	
 49.2965	  68.9167	   0.0000	
 53.4110	  79.1439	   0.0000	
 47.8397	  67.0364	   0.0000	
 53.0957	  77.0993	   0.0000	
 44.6799	  65.7480	   0.0000	
 56.6958	  77.0156	   0.0000	
 39.0207	  65.2506	   0.0000	
 64.3466	  78.4981	   0.0000	
 42.0359	  59.5299	   0.0000	
 49.0284	  68.2832	   0.0000	
 35.1488	  57.4553	   0.0000	
 61.8103	  70.6592	   0.0000	
 27.1827	  55.2278	   0.0000	
 68.1871	  69.1709	   0.0000	
 17.6580	  52.3212	   0.0000	
 68.5378	  63.6109	   0.0000	
 20.1648	  40.2693	   0.0000	
 78.7505	  61.2802	   0.0000	
-23.3266	  52.2159	   0.0000	
114.7798	  72.4770	   0.0000	
 -8.4077	  22.1069	   0.0000	
102.5212	  46.2929	   0.0000	
 -0.0000	   0.0000	   0.0000	
 -0.0000	  -0.0000	   0.0000	
 50.3432	  50.0000	   0.0000	
 85.0226	 152.4158	   0.0000	
 49.3525	  49.1309	   0.0000	
 50.9241	 136.0206	   0.0000	
 47.1745	  48.5643	   0.0000	
 36.1047	 121.1520	   0.0000	
 46.5381	  47.2033	   0.0000	
 27.0419	 108.7336	   0.0000	
 44.0928	  46.8208	   0.0000	
 27.4651	 103.0321	   0.0000	
 43.1040	  45.8562	   0.0000	
 27.1649	  98.4171	   0.0000	
 43.8144	  45.0345	   0.0000	
 27.1826	  94.7865	   0.0000	
 44.5561	  43.8592	   0.0000	
 27.8395	  91.2752	   0.0000	
 43.6195	  43.2712	   0.0000	
 30.4464	  88.2750	   0.0000	
 40.0692	  43.6879	   0.0000	
 33.9934	  85.1088	   0.0000	
 40.3086	  42.2337	   0.0000	
 38.7076	  82.3521	   0.0000	
 46.7640	  38.3371	   0.0000	
 28.3967	  73.8498	   0.0000	
 41.4213	  38.6297	   0.0000	
 38.8850	  72.9089	   0.0000	
 40.6307	  35.8188	   0.0000	
 41.6578	  67.6278	   0.0000	
 38.2752	  32.0592	   0.0000	
 42.8195	  61.8024	   0.0000	
 41.4146	  26.2474	   0.0000	
 48.2735	  53.9841	   0.0000	
 20.8212	  26.0208	   0.0000	
 69.2898	  49.7849	   0.0000	
 18.0201	  17.8082	   0.0000	
 68.9149	  36.4733	   0.0000	
 34.6177	   2.3512	   0.0000	
 59.8857	  20.1183	   0.0000	
 23.9684	   0.5623	   0.0000	
 -0.6973	  -1.2872	   0.0000	
 -0.0000	   0.0000	   0.0000	
 -0.0000	  -0.0000	   0.0000	
 58.5725	  50.0000	   0.0000	
-42.1572	  68.9614	   0.0000	
 53.3515	  50.8350	   0.0000	
-10.9371	  70.2491	   0.0000	
 50.6269	  51.1898	   0.0000	
  3.6236	  70.0299	   0.0000	
 47.7687	  51.8677	   0.0000	
 10.9631	  69.4004	   0.0000	
 47.7511	  52.1009	   0.0000	
 12.9726	  68.0138	   0.0000	
 48.5656	  52.4130	   0.0000	
 13.8426	  66.7168	   0.0000	
 47.8803	  53.0730	   0.0000	
 15.0387	  64.9867	   0.0000	
 47.1684	  52.9647	   0.0000	
 17.0824	  63.0218	   0.0000	
 46.8778	  53.6383	   0.0000	
 18.2589	  61.2173	   0.0000	
 45.8513	  54.2102	   0.0000	
 21.2317	  60.1038	   0.0000	
 52.1681	  53.7938	   0.0000	
 15.5239	  58.1837	   0.0000	
 52.0267	  54.0360	   0.0000	
 17.4821	  55.0833	   0.0000	
 55.5057	  53.9420	   0.0000	
 18.9951	  51.9979	   0.0000	
 57.4536	  54.3599	   0.0000	
 10.8926	  47.9234	   0.0000	
 61.1579	  54.2351	   0.0000	
 15.5175	  44.8050	   0.0000	
 60.9837	  51.0915	   0.0000	
 21.2581	  38.2744	   0.0000	
 59.0131	  49.5267	   0.0000	
 24.8955	  33.7573	   0.0000	
 63.6708	  49.2671	   0.0000	
 27.8952	  29.7273	   0.0000	
 60.2856	  47.8002	   0.0000	
  2.7114	  29.5535	   0.0000	
 37.5684	  46.8236	   0.0000	
  3.4345	  34.8173	   0.0000	
 27.1647	  43.8998	   0.0000	
 -0.2201	  37.1689	   0.0000	
 44.1062	  50.0000	   0.0000	
 11.4506	  55.2384	   0.0000	
 46.5891	  51.2134	   0.0000	
 -2.2424	  60.2928	   0.0000	
 45.3435	  51.6099	   0.0000	
  1.3361	  60.8786	   0.0000	
 43.6851	  51.7081	   0.0000	
  5.2741	  60.2723	   0.0000	
 43.3488	  52.1417	   0.0000	
  6.6073	  60.1467	   0.0000	
 43.4788	  52.7003	   0.0000	
  7.5762	  60.0713	   0.0000	
 41.8982	  52.8647	   0.0000	
 10.1958	  59.3232	   0.0000	
 42.5137	  53.7644	   0.0000	
  8.7240	  60.2269	   0.0000	
 43.5365	  54.3188	   0.0000	
 11.3740	  59.3641	   0.0000	
 43.0615	  55.1061	   0.0000	
 13.2969	  59.0251	   0.0000	
 44.2318	  56.4743	   0.0000	
 14.4043	  59.2564	   0.0000	
 45.1035	  57.5086	   0.0000	
 11.7440	  59.3953	   0.0000	
 46.9989	  59.4907	   0.0000	
  6.0589	  61.2446	   0.0000	
 47.6753	  61.6266	   0.0000	
 11.2908	  61.3476	   0.0000	
 48.2184	  63.1104	   0.0000	
  9.9445	  61.3559	   0.0000	
 55.7580	  68.0848	   0.0000	
  6.6604	  62.9125	   0.0000	
 52.4704	  70.1709	   0.0000	
 10.6227	  61.6982	   0.0000	
 50.7077	  73.0301	   0.0000	
 15.0790	  60.1033	   0.0000	
 51.3575	  76.1024	   0.0000	
 19.8404	  57.5599	   0.0000	
 44.0392	  79.9879	   0.0000	
 19.4232	  63.4227	   0.0000	
 24.4849	  79.4312	   0.0000	
 20.9047	  67.4903	   0.0000	
 46.4074	  50.0000	   0.0000	
 -0.7708	  45.8147	   0.0000	
 45.8598	  49.7124	   0.0000	
  2.7026	  45.0790	   0.0000	
 44.8262	  49.5270	   0.0000	
  5.3425	  44.4123	   0.0000	
 43.3598	  49.1030	   0.0000	
  8.1192	  43.7242	   0.0000	
 43.3726	  49.3782	   0.0000	
  6.6393	  45.5156	   0.0000	
 43.3593	  49.6613	   0.0000	
  5.6109	  47.4706	   0.0000	
 42.1139	  49.2481	   0.0000	
  7.1839	  47.7352	   0.0000	
 42.0118	  49.5527	   0.0000	
  8.2573	  48.6973	   0.0000	
 41.3313	  49.5858	   0.0000	
 10.1108	  48.9915	   0.0000	
 40.4535	  49.2825	   0.0000	
 11.1541	  49.5310	   0.0000	
 42.2990	  50.5564	   0.0000	
 10.0745	  51.2304	   0.0000	
 38.0321	  49.2150	   0.0000	
 15.1391	  49.8090	   0.0000	
 39.6090	  50.8841	   0.0000	
 14.9593	  50.8465	   0.0000	
 40.8733	  52.2652	   0.0000	
 12.4649	  53.0465	   0.0000	
 40.5756	  54.1068	   0.0000	
 14.6404	  54.9262	   0.0000	
 40.0709	  55.1858	   0.0000	
 13.8437	  56.2999	   0.0000	
 39.6844	  57.9167	   0.0000	
 14.1957	  58.6262	   0.0000	
 40.8652	  62.8790	   0.0000	
 14.0672	  61.4714	   0.0000	
 36.9074	  65.3555	   0.0000	
 20.9348	  61.1647	   0.0000	
 42.5413	  71.4446	   0.0000	
 17.7244	  64.0548	   0.0000	
 26.3892	  69.9925	   0.0000	
 36.7315	  58.7109	   0.0000	
 52.1239	  50.0000	   0.0000	
  0.9402	  31.3819	   0.0000	
 49.2940	  49.4564	   0.0000	
  2.4203	  32.7013	   0.0000	
 46.2531	  48.8629	   0.0000	
  3.8602	  34.0348	   0.0000	
 45.0320	  48.7329	   0.0000	
  5.2063	  35.3619	   0.0000	
 45.3735	  49.1668	   0.0000	
  7.4427	  36.3799	   0.0000	
 45.6079	  49.6310	   0.0000	
  8.0377	  38.3057	   0.0000	
 42.6254	  47.7813	   0.0000	
  9.3662	  39.1291	   0.0000	
 41.9915	  47.7726	   0.0000	
 10.3737	  39.5226	   0.0000	
 41.8685	  48.1265	   0.0000	
 11.0635	  40.4009	   0.0000	
 40.9678	  48.1911	   0.0000	
 12.1465	  41.8381	   0.0000	
 40.5476	  48.3335	   0.0000	
 13.9782	  42.7582	   0.0000	
 39.7548	  48.2923	   0.0000	
 14.8712	  43.9788	   0.0000	
 39.5538	  48.8330	   0.0000	
 15.5539	  45.6710	   0.0000	
 39.1460	  49.5160	   0.0000	
 15.6259	  47.6050	   0.0000	
 38.8741	  48.7078	   0.0000	
 15.8518	  47.6890	   0.0000	
 38.4497	  49.3211	   0.0000	
 16.0484	  48.6183	   0.0000	
 35.0310	  48.6038	   0.0000	
 24.2965	  46.4452	   0.0000	
 38.1968	  52.5335	   0.0000	
 17.0923	  53.9767	   0.0000	
 34.4362	  51.8886	   0.0000	
 21.8222	  53.5624	   0.0000	
 31.4626	  52.6153	   0.0000	
 22.4804	  56.3322	   0.0000	
 33.2565	  58.0714	   0.0000	
 21.7084	  58.5669	   0.0000	
  0.0000	   0.0000	   0.0000	
  0.0000	   0.0000	   0.0000	
 -0.0000	   0.0000	   0.0000	
  0.0000	  -0.0000	   0.0000	
 -0.0000	   0.0000	   0.0000	
  0.0000	   0.0000	   0.0000	
 -0.0000	   0.0000	   0.0000	
 -0.0000	  -0.0000	   0.0000	
 -0.0000	  -0.0000	   0.0000	
 -0.0000	   0.0000	   0.0000	
 -0.0000	  -0.0000	   0.0000	
 -0.0000	  -0.0000	   0.0000	
 -0.0000	   0.0000	   0.0000	
 -0.0000	  -0.0000	   0.0000	