# vtk DataFile Version 3.0 
Results 
ASCII 
DATASET UNSTRUCTURED_GRID 
POINTS 	    1451 float 
  0.0000	   0.6000	  0.0000	 
  0.0000	   1.2000	  0.0000	 
  0.0000	   1.8000	  0.0000	 
  0.0000	   2.4000	  0.0000	 
  0.0000	   3.0000	  0.0000	 
  0.0000	   3.6000	  0.0000	 
  0.0000	   4.2000	  0.0000	 
  0.0000	   4.8000	  0.0000	 
  0.0000	   5.4000	  0.0000	 
  0.0000	   6.0000	  0.0000	 
  0.0000	   6.6000	  0.0000	 
  0.0000	   7.2000	  0.0000	 
  0.0000	   7.8000	  0.0000	 
  0.0000	   8.4000	  0.0000	 
  0.0000	   9.0000	  0.0000	 
  0.0000	   9.6000	  0.0000	 
  0.0000	  10.2000	  0.0000	 
  0.0000	  10.8000	  0.0000	 
  0.0000	  11.4000	  0.0000	 
  0.2250	   0.8475	  0.0000	 
  0.2250	   1.4200	  0.0000	 
  0.2250	   1.9925	  0.0000	 
  0.2250	   2.5650	  0.0000	 
  0.2250	   3.1375	  0.0000	 
  0.2250	   3.7100	  0.0000	 
  0.2250	   4.2825	  0.0000	 
  0.2250	   4.8550	  0.0000	 
  0.2250	   5.4275	  0.0000	 
  0.2250	   6.0000	  0.0000	 
  0.2250	   6.5725	  0.0000	 
  0.2250	   7.1450	  0.0000	 
  0.2250	   7.7175	  0.0000	 
  0.2250	   8.2900	  0.0000	 
  0.2250	   8.8625	  0.0000	 
  0.2250	   9.4350	  0.0000	 
  0.2250	  10.0075	  0.0000	 
  0.2250	  10.5800	  0.0000	 
  0.2250	  11.1525	  0.0000	 
  0.4500	   1.0950	  0.0000	 
  0.4500	   1.6400	  0.0000	 
  0.4500	   2.1850	  0.0000	 
  0.4500	   2.7300	  0.0000	 
  0.4500	   3.2750	  0.0000	 
  0.4500	   3.8200	  0.0000	 
  0.4500	   4.3650	  0.0000	 
  0.4500	   4.9100	  0.0000	 
  0.4500	   5.4550	  0.0000	 
  0.4500	   6.0000	  0.0000	 
  0.4500	   6.5450	  0.0000	 
  0.4500	   7.0900	  0.0000	 
  0.4500	   7.6350	  0.0000	 
  0.4500	   8.1800	  0.0000	 
  0.4500	   8.7250	  0.0000	 
  0.4500	   9.2700	  0.0000	 
  0.4500	   9.8150	  0.0000	 
  0.4500	  10.3600	  0.0000	 
  0.4500	  10.9050	  0.0000	 
  0.6750	   1.3425	  0.0000	 
  0.6750	   1.8600	  0.0000	 
  0.6750	   2.3775	  0.0000	 
  0.6750	   2.8950	  0.0000	 
  0.6750	   3.4125	  0.0000	 
  0.6750	   3.9300	  0.0000	 
  0.6750	   4.4475	  0.0000	 
  0.6750	   4.9650	  0.0000	 
  0.6750	   5.4825	  0.0000	 
  0.6750	   6.0000	  0.0000	 
  0.6750	   6.5175	  0.0000	 
  0.6750	   7.0350	  0.0000	 
  0.6750	   7.5525	  0.0000	 
  0.6750	   8.0700	  0.0000	 
  0.6750	   8.5875	  0.0000	 
  0.6750	   9.1050	  0.0000	 
  0.6750	   9.6225	  0.0000	 
  0.6750	  10.1400	  0.0000	 
  0.6750	  10.6575	  0.0000	 
  0.9000	   1.5900	  0.0000	 
  0.9000	   2.0800	  0.0000	 
  0.9000	   2.5700	  0.0000	 
  0.9000	   3.0600	  0.0000	 
  0.9000	   3.5500	  0.0000	 
  0.9000	   4.0400	  0.0000	 
  0.9000	   4.5300	  0.0000	 
  0.9000	   5.0200	  0.0000	 
  0.9000	   5.5100	  0.0000	 
  0.9000	   6.0000	  0.0000	 
  0.9000	   6.4900	  0.0000	 
  0.9000	   6.9800	  0.0000	 
  0.9000	   7.4700	  0.0000	 
  0.9000	   7.9600	  0.0000	 
  0.9000	   8.4500	  0.0000	 
  0.9000	   8.9400	  0.0000	 
  0.9000	   9.4300	  0.0000	 
  0.9000	   9.9200	  0.0000	 
  0.9000	  10.4100	  0.0000	 
  1.1250	   1.8375	  0.0000	 
  1.1250	   2.3000	  0.0000	 
  1.1250	   2.7625	  0.0000	 
  1.1250	   3.2250	  0.0000	 
  1.1250	   3.6875	  0.0000	 
  1.1250	   4.1500	  0.0000	 
  1.1250	   4.6125	  0.0000	 
  1.1250	   5.0750	  0.0000	 
  1.1250	   5.5375	  0.0000	 
  1.1250	   6.0000	  0.0000	 
  1.1250	   6.4625	  0.0000	 
  1.1250	   6.9250	  0.0000	 
  1.1250	   7.3875	  0.0000	 
  1.1250	   7.8500	  0.0000	 
  1.1250	   8.3125	  0.0000	 
  1.1250	   8.7750	  0.0000	 
  1.1250	   9.2375	  0.0000	 
  1.1250	   9.7000	  0.0000	 
  1.1250	  10.1625	  0.0000	 
  1.3500	   2.0850	  0.0000	 
  1.3500	   2.5200	  0.0000	 
  1.3500	   2.9550	  0.0000	 
  1.3500	   3.3900	  0.0000	 
  1.3500	   3.8250	  0.0000	 
  1.3500	   4.2600	  0.0000	 
  1.3500	   4.6950	  0.0000	 
  1.3500	   5.1300	  0.0000	 
  1.3500	   5.5650	  0.0000	 
  1.3500	   6.0000	  0.0000	 
  1.3500	   6.4350	  0.0000	 
  1.3500	   6.8700	  0.0000	 
  1.3500	   7.3050	  0.0000	 
  1.3500	   7.7400	  0.0000	 
  1.3500	   8.1750	  0.0000	 
  1.3500	   8.6100	  0.0000	 
  1.3500	   9.0450	  0.0000	 
  1.3500	   9.4800	  0.0000	 
  1.3500	   9.9150	  0.0000	 
  1.5750	   2.3325	  0.0000	 
  1.5750	   2.7400	  0.0000	 
  1.5750	   3.1475	  0.0000	 
  1.5750	   3.5550	  0.0000	 
  1.5750	   3.9625	  0.0000	 
  1.5750	   4.3700	  0.0000	 
  1.5750	   4.7775	  0.0000	 
  1.5750	   5.1850	  0.0000	 
  1.5750	   5.5925	  0.0000	 
  1.5750	   6.0000	  0.0000	 
  1.5750	   6.4075	  0.0000	 
  1.5750	   6.8150	  0.0000	 
  1.5750	   7.2225	  0.0000	 
  1.5750	   7.6300	  0.0000	 
  1.5750	   8.0375	  0.0000	 
  1.5750	   8.4450	  0.0000	 
  1.5750	   8.8525	  0.0000	 
  1.5750	   9.2600	  0.0000	 
  1.5750	   9.6675	  0.0000	 
  1.8000	   2.5800	  0.0000	 
  1.8000	   2.9600	  0.0000	 
  1.8000	   3.3400	  0.0000	 
  1.8000	   3.7200	  0.0000	 
  1.8000	   4.1000	  0.0000	 
  1.8000	   4.4800	  0.0000	 
  1.8000	   4.8600	  0.0000	 
  1.8000	   5.2400	  0.0000	 
  1.8000	   5.6200	  0.0000	 
  1.8000	   6.0000	  0.0000	 
  1.8000	   6.3800	  0.0000	 
  1.8000	   6.7600	  0.0000	 
  1.8000	   7.1400	  0.0000	 
  1.8000	   7.5200	  0.0000	 
  1.8000	   7.9000	  0.0000	 
  1.8000	   8.2800	  0.0000	 
  1.8000	   8.6600	  0.0000	 
  1.8000	   9.0400	  0.0000	 
  1.8000	   9.4200	  0.0000	 
  2.0250	   2.8275	  0.0000	 
  2.0250	   3.1800	  0.0000	 
  2.0250	   3.5325	  0.0000	 
  2.0250	   3.8850	  0.0000	 
  2.0250	   4.2375	  0.0000	 
  2.0250	   4.5900	  0.0000	 
  2.0250	   4.9425	  0.0000	 
  2.0250	   5.2950	  0.0000	 
  2.0250	   5.6475	  0.0000	 
  2.0250	   6.0000	  0.0000	 
  2.0250	   6.3525	  0.0000	 
  2.0250	   6.7050	  0.0000	 
  2.0250	   7.0575	  0.0000	 
  2.0250	   7.4100	  0.0000	 
  2.0250	   7.7625	  0.0000	 
  2.0250	   8.1150	  0.0000	 
  2.0250	   8.4675	  0.0000	 
  2.0250	   8.8200	  0.0000	 
  2.0250	   9.1725	  0.0000	 
  2.2500	   3.0750	  0.0000	 
  2.2500	   3.4000	  0.0000	 
  2.2500	   3.7250	  0.0000	 
  2.2500	   4.0500	  0.0000	 
  2.2500	   4.3750	  0.0000	 
  2.2500	   4.7000	  0.0000	 
  2.2500	   5.0250	  0.0000	 
  2.2500	   5.3500	  0.0000	 
  2.2500	   5.6750	  0.0000	 
  2.2500	   6.0000	  0.0000	 
  2.2500	   6.3250	  0.0000	 
  2.2500	   6.6500	  0.0000	 
  2.2500	   6.9750	  0.0000	 
  2.2500	   7.3000	  0.0000	 
  2.2500	   7.6250	  0.0000	 
  2.2500	   7.9500	  0.0000	 
  2.2500	   8.2750	  0.0000	 
  2.2500	   8.6000	  0.0000	 
  2.2500	   8.9250	  0.0000	 
  2.4750	   3.3225	  0.0000	 
  2.4750	   3.6200	  0.0000	 
  2.4750	   3.9175	  0.0000	 
  2.4750	   4.2150	  0.0000	 
  2.4750	   4.5125	  0.0000	 
  2.4750	   4.8100	  0.0000	 
  2.4750	   5.1075	  0.0000	 
  2.4750	   5.4050	  0.0000	 
  2.4750	   5.7025	  0.0000	 
  2.4750	   6.0000	  0.0000	 
  2.4750	   6.2975	  0.0000	 
  2.4750	   6.5950	  0.0000	 
  2.4750	   6.8925	  0.0000	 
  2.4750	   7.1900	  0.0000	 
  2.4750	   7.4875	  0.0000	 
  2.4750	   7.7850	  0.0000	 
  2.4750	   8.0825	  0.0000	 
  2.4750	   8.3800	  0.0000	 
  2.4750	   8.6775	  0.0000	 
  2.7000	   3.5700	  0.0000	 
  2.7000	   3.8400	  0.0000	 
  2.7000	   4.1100	  0.0000	 
  2.7000	   4.3800	  0.0000	 
  2.7000	   4.6500	  0.0000	 
  2.7000	   4.9200	  0.0000	 
  2.7000	   5.1900	  0.0000	 
  2.7000	   5.4600	  0.0000	 
  2.7000	   5.7300	  0.0000	 
  2.7000	   6.0000	  0.0000	 
  2.7000	   6.2700	  0.0000	 
  2.7000	   6.5400	  0.0000	 
  2.7000	   6.8100	  0.0000	 
  2.7000	   7.0800	  0.0000	 
  2.7000	   7.3500	  0.0000	 
  2.7000	   7.6200	  0.0000	 
  2.7000	   7.8900	  0.0000	 
  2.7000	   8.1600	  0.0000	 
  2.7000	   8.4300	  0.0000	 
  2.9250	   3.8175	  0.0000	 
  2.9250	   4.0600	  0.0000	 
  2.9250	   4.3025	  0.0000	 
  2.9250	   4.5450	  0.0000	 
  2.9250	   4.7875	  0.0000	 
  2.9250	   5.0300	  0.0000	 
  2.9250	   5.2725	  0.0000	 
  2.9250	   5.5150	  0.0000	 
  2.9250	   5.7575	  0.0000	 
  2.9250	   6.0000	  0.0000	 
  2.9250	   6.2425	  0.0000	 
  2.9250	   6.4850	  0.0000	 
  2.9250	   6.7275	  0.0000	 
  2.9250	   6.9700	  0.0000	 
  2.9250	   7.2125	  0.0000	 
  2.9250	   7.4550	  0.0000	 
  2.9250	   7.6975	  0.0000	 
  2.9250	   7.9400	  0.0000	 
  2.9250	   8.1825	  0.0000	 
  3.1500	   4.0650	  0.0000	 
  3.1500	   4.2800	  0.0000	 
  3.1500	   4.4950	  0.0000	 
  3.1500	   4.7100	  0.0000	 
  3.1500	   4.9250	  0.0000	 
  3.1500	   5.1400	  0.0000	 
  3.1500	   5.3550	  0.0000	 
  3.1500	   5.5700	  0.0000	 
  3.1500	   5.7850	  0.0000	 
  3.1500	   6.0000	  0.0000	 
  3.1500	   6.2150	  0.0000	 
  3.1500	   6.4300	  0.0000	 
  3.1500	   6.6450	  0.0000	 
  3.1500	   6.8600	  0.0000	 
  3.1500	   7.0750	  0.0000	 
  3.1500	   7.2900	  0.0000	 
  3.1500	   7.5050	  0.0000	 
  3.1500	   7.7200	  0.0000	 
  3.1500	   7.9350	  0.0000	 
  3.3750	   4.3125	  0.0000	 
  3.3750	   4.5000	  0.0000	 
  3.3750	   4.6875	  0.0000	 
  3.3750	   4.8750	  0.0000	 
  3.3750	   5.0625	  0.0000	 
  3.3750	   5.2500	  0.0000	 
  3.3750	   5.4375	  0.0000	 
  3.3750	   5.6250	  0.0000	 
  3.3750	   5.8125	  0.0000	 
  3.3750	   6.0000	  0.0000	 
  3.3750	   6.1875	  0.0000	 
  3.3750	   6.3750	  0.0000	 
  3.3750	   6.5625	  0.0000	 
  3.3750	   6.7500	  0.0000	 
  3.3750	   6.9375	  0.0000	 
  3.3750	   7.1250	  0.0000	 
  3.3750	   7.3125	  0.0000	 
  3.3750	   7.5000	  0.0000	 
  3.3750	   7.6875	  0.0000	 
  3.6000	   4.5600	  0.0000	 
  3.6000	   4.7200	  0.0000	 
  3.6000	   4.8800	  0.0000	 
  3.6000	   5.0400	  0.0000	 
  3.6000	   5.2000	  0.0000	 
  3.6000	   5.3600	  0.0000	 
  3.6000	   5.5200	  0.0000	 
  3.6000	   5.6800	  0.0000	 
  3.6000	   5.8400	  0.0000	 
  3.6000	   6.0000	  0.0000	 
  3.6000	   6.1600	  0.0000	 
  3.6000	   6.3200	  0.0000	 
  3.6000	   6.4800	  0.0000	 
  3.6000	   6.6400	  0.0000	 
  3.6000	   6.8000	  0.0000	 
  3.6000	   6.9600	  0.0000	 
  3.6000	   7.1200	  0.0000	 
  3.6000	   7.2800	  0.0000	 
  3.6000	   7.4400	  0.0000	 
  3.8250	   4.8075	  0.0000	 
  3.8250	   4.9400	  0.0000	 
  3.8250	   5.0725	  0.0000	 
  3.8250	   5.2050	  0.0000	 
  3.8250	   5.3375	  0.0000	 
  3.8250	   5.4700	  0.0000	 
  3.8250	   5.6025	  0.0000	 
[...]
POINT_DATA 	    1451 
VECTORS U float 
 50.0000	   0.0000	   0.0000	
 50.0000	   0.0000	   0.0000	
 50.0000	  -0.0000	   0.0000	
 50.0000	   0.0000	   0.0000	
 50.0000	  -0.0000	   0.0000	
 50.0000	  -0.0000	   0.0000	
 50.0000	   0.0000	   0.0000	
 50.0000	  -0.0000	   0.0000	
 50.0000	   0.0000	   0.0000	
 50.0000	   0.0000	   0.0000	
 50.0000	   0.0000	   0.0000	
 50.0000	  -0.0000	   0.0000	
 50.0000	   0.0000	   0.0000	
 50.0000	   0.0000	   0.0000	
 50.0000	  -0.0000	   0.0000	
 50.0000	  -0.0000	   0.0000	
 50.0000	   0.0000	   0.0000	
 50.0000	   0.0000	   0.0000	
 50.0000	  -0.0000	   0.0000	
-346.5189	 -272.8147	   0.0000	
167.2396	   8.8220	   0.0000	
 25.1447	  16.0376	   0.0000	
 65.8608	  29.7572	   0.0000	
 54.9415	  39.3778	   0.0000	
 54.7615	  49.9875	   0.0000	
 58.3521	  65.6428	   0.0000	
 58.3794	  73.4060	   0.0000	
 59.6296	  79.3136	   0.0000	
 58.1668	  78.8461	   0.0000	
 59.2097	  89.4342	   0.0000	
 59.4398	  92.4144	   0.0000	
 59.6127	  94.5452	   0.0000	
 65.3568	  87.5469	   0.0000	
 62.6588	  80.5716	   0.0000	
 62.9217	  77.6407	   0.0000	
 60.9999	  76.1802	   0.0000	
 70.0720	  71.8837	   0.0000	
 45.5846	  65.2653	   0.0000	
 15.1511	 -127.3602	   0.0000	
 59.3622	  39.7001	   0.0000	
 48.8355	  23.0279	   0.0000	
 59.2517	  44.8369	   0.0000	
 56.2258	  52.2058	   0.0000	
 51.6001	  48.3601	   0.0000	
 56.0299	  49.2863	   0.0000	
 56.5425	  53.7972	   0.0000	
 58.5426	  59.1604	   0.0000	
 56.9526	  65.9489	   0.0000	
 56.4897	  65.8033	   0.0000	
 58.8215	  68.9890	   0.0000	
 58.3487	  70.5861	   0.0000	
 65.7705	  77.0937	   0.0000	
 61.6912	 100.2669	   0.0000	
 57.8503	  99.5140	   0.0000	
 56.2455	  98.3055	   0.0000	
 62.9886	  93.6934	   0.0000	
 58.6525	  90.4959	   0.0000	
-58.8544	 -37.9830	   0.0000	
 59.9582	  38.2805	   0.0000	
 43.9051	  29.9238	   0.0000	
 53.2788	  44.3015	   0.0000	
 53.0345	  47.6850	   0.0000	
 51.4333	  50.8261	   0.0000	
 54.1424	  55.7072	   0.0000	
 54.2059	  59.9844	   0.0000	
 55.8241	  64.6310	   0.0000	
 55.4527	  68.1854	   0.0000	
 55.7939	  71.6339	   0.0000	
 57.3419	  74.8272	   0.0000	
 57.0168	  77.7363	   0.0000	
 60.9538	  81.4689	   0.0000	
 58.0189	  84.8866	   0.0000	
 60.5245	  91.7618	   0.0000	
 61.3990	  94.4944	   0.0000	
 69.2008	  89.7088	   0.0000	
 59.7770	  83.3795	   0.0000	
  3.2131	   3.5201	   0.0000	
 52.5316	  33.5215	   0.0000	
 43.1224	  34.6322	   0.0000	
 50.4475	  41.6251	   0.0000	
 51.3378	  49.0114	   0.0000	
 50.3596	  51.6537	   0.0000	
 52.5585	  55.5648	   0.0000	
 52.6825	  59.5531	   0.0000	
 54.0092	  63.7797	   0.0000	
 53.9836	  67.8035	   0.0000	
 54.3896	  70.4927	   0.0000	
 55.8571	  73.5501	   0.0000	
 55.6004	  76.2947	   0.0000	
 58.9913	  79.1323	   0.0000	
 56.4502	  84.8631	   0.0000	
 58.5495	  82.1385	   0.0000	
 58.7771	  85.6545	   0.0000	
 68.4264	  89.1588	   0.0000	
 60.6459	  78.2701	   0.0000	
 28.3277	  11.8009	   0.0000	
 42.3971	  39.2358	   0.0000	
 44.9239	  36.4237	   0.0000	
 48.3866	  44.4066	   0.0000	
 49.2015	  49.5461	   0.0000	
 49.0115	  52.9646	   0.0000	
 50.6655	  57.0172	   0.0000	
 50.9222	  60.7295	   0.0000	
 52.1066	  64.5749	   0.0000	
 52.4147	  68.0972	   0.0000	
 53.0711	  71.0318	   0.0000	
 54.3452	  73.9471	   0.0000	
 54.3784	  76.6866	   0.0000	
 56.7663	  79.0191	   0.0000	
 55.5238	  82.7623	   0.0000	
 56.2458	  84.2642	   0.0000	
 57.4923	  85.6192	   0.0000	
 60.3206	  85.9611	   0.0000	
 70.1387	  92.1254	   0.0000	
 27.7427	  30.5632	   0.0000	
 45.0264	  40.2076	   0.0000	
 43.3981	  43.0707	   0.0000	
 46.2576	  47.2948	   0.0000	
 47.3175	  51.2062	   0.0000	
 47.5501	  54.2820	   0.0000	
 48.8697	  58.0354	   0.0000	
 49.2265	  61.4981	   0.0000	
 50.3129	  65.0708	   0.0000	
 50.8357	  68.4091	   0.0000	
 51.6234	  71.2350	   0.0000	
 52.7952	  73.9785	   0.0000	
 53.0728	  76.5363	   0.0000	
 54.8814	  78.8401	   0.0000	
 54.3128	  82.2268	   0.0000	
 55.7636	  83.8840	   0.0000	
 55.4817	  86.9091	   0.0000	
 60.0544	  90.1960	   0.0000	
 52.5824	  90.0484	   0.0000	
 33.7842	  37.0804	   0.0000	
 42.4486	  44.1849	   0.0000	
 43.0328	  45.3159	   0.0000	
 44.7521	  49.2151	   0.0000	
 45.6789	  52.5876	   0.0000	
 46.0709	  55.6124	   0.0000	
 47.0835	  59.0964	   0.0000	
 47.5274	  62.3846	   0.0000	
 48.5447	  65.7144	   0.0000	
 49.2475	  68.8505	   0.0000	
 50.1324	  71.5603	   0.0000	
 51.2699	  74.1452	   0.0000	
 51.7749	  76.5150	   0.0000	
 53.1198	  78.5985	   0.0000	
 52.9968	  81.5001	   0.0000	
 54.1019	  83.4624	   0.0000	
 53.2389	  86.1083	   0.0000	
 58.2669	  89.8724	   0.0000	
 50.4494	  92.9634	   0.0000	
 37.0712	  42.0238	   0.0000	
 41.1374	  46.3059	   0.0000	
 42.3163	  47.9116	   0.0000	
 43.3107	  51.0709	   0.0000	
 44.0870	  54.0236	   0.0000	
 44.4952	  56.9060	   0.0000	
 45.2997	  60.1350	   0.0000	
 45.8102	  63.2688	   0.0000	
 46.7665	  66.4166	   0.0000	
 47.6263	  69.3776	   0.0000	
 48.6007	  71.9586	   0.0000	
 49.7684	  74.3626	   0.0000	
 50.4319	  76.5089	   0.0000	
 51.5706	  78.4561	   0.0000	
 51.6084	  80.7921	   0.0000	
 52.6428	  82.7388	   0.0000	
 51.4757	  85.0374	   0.0000	
 55.8935	  87.8179	   0.0000	
 46.6573	  90.4761	   0.0000	
 38.3422	  45.1020	   0.0000	
 40.1585	  48.2657	   0.0000	
 41.4308	  49.9331	   0.0000	
 41.8946	  52.7062	   0.0000	
 42.5171	  55.4040	   0.0000	
 42.8614	  58.1574	   0.0000	
 43.5027	  61.1949	   0.0000	
 44.0498	  64.1986	   0.0000	
 44.9739	  67.1911	   0.0000	
 45.9633	  70.0075	   0.0000	
 47.0487	  72.4590	   0.0000	
 48.2624	  74.6705	   0.0000	
 49.1091	  76.6029	   0.0000	
 50.0873	  78.2799	   0.0000	
 50.3597	  80.2778	   0.0000	
 50.9696	  81.9163	   0.0000	
 50.3715	  84.4262	   0.0000	
 53.5541	  85.9937	   0.0000	
 45.3238	  90.2274	   0.0000	
 38.6182	  47.9788	   0.0000	
 39.1882	  49.9682	   0.0000	
 40.3162	  51.8548	   0.0000	
 40.4477	  54.1997	   0.0000	
 40.8804	  56.7296	   0.0000	
 41.1297	  59.3784	   0.0000	
 41.6476	  62.2717	   0.0000	
 42.2131	  65.1994	   0.0000	
 43.1594	  68.0611	   0.0000	
 44.2260	  70.7639	   0.0000	
 45.4578	  73.0876	   0.0000	
 46.7695	  75.1193	   0.0000	
 47.7864	  76.7821	   0.0000	
 48.7845	  78.2344	   0.0000	
 49.0947	  79.7618	   0.0000	
 49.6856	  81.1839	   0.0000	
 48.7291	  83.2972	   0.0000	
 52.3429	  84.7915	   0.0000	
 43.6220	  87.5410	   0.0000	
 38.1209	  49.7320	   0.0000	
 38.2054	  51.5202	   0.0000	
 38.9842	  53.4625	   0.0000	
 38.9102	  55.6064	   0.0000	
 39.1301	  58.0174	   0.0000	
 39.2768	  60.5882	   0.0000	
 39.6873	  63.3956	   0.0000	
 40.2756	  66.2601	   0.0000	
 41.2476	  69.0632	   0.0000	
 42.4453	  71.6920	   0.0000	
 43.8145	  73.8776	   0.0000	
 45.2836	  75.7344	   0.0000	
 46.5090	  77.1858	   0.0000	
 47.5442	  78.3238	   0.0000	
 48.0527	  79.5001	   0.0000	
 48.4175	  80.5181	   0.0000	
 47.8047	  82.2302	   0.0000	
 49.7743	  83.4652	   0.0000	
 44.3769	  86.1869	   0.0000	
 37.1421	  51.4751	   0.0000	
 37.0072	  53.0557	   0.0000	
 37.4065	  54.8971	   0.0000	
 37.1889	  56.9053	   0.0000	
 37.2071	  59.2538	   0.0000	
 37.2312	  61.8146	   0.0000	
 37.5819	  64.5766	   0.0000	
 38.1623	  67.4612	   0.0000	
 39.2009	  70.2191	   0.0000	
 40.5310	  72.8078	   0.0000	
 42.0960	  74.9162	   0.0000	
 43.7874	  76.6359	   0.0000	
 45.2345	  77.8036	   0.0000	
 46.4989	  78.6412	   0.0000	
 47.1003	  79.3258	   0.0000	
 47.6234	  79.9197	   0.0000	
 47.0790	  80.9411	   0.0000	
 48.2883	  81.9562	   0.0000	
 42.5961	  85.4913	   0.0000	
 36.1807	  52.9935	   0.0000	
 35.7044	  54.3576	   0.0000	
 35.5470	  56.2158	   0.0000	
 35.2009	  58.1699	   0.0000	
 35.0057	  60.5367	   0.0000	
 34.9590	  63.0754	   0.0000	
 35.2039	  65.9183	   0.0000	
 35.8796	  68.7962	   0.0000	
 36.9659	  71.5828	   0.0000	
 38.4823	  74.1773	   0.0000	
 40.2301	  76.1800	   0.0000	
 42.1975	  77.8880	   0.0000	
 44.0502	  78.9191	   0.0000	
 45.5198	  79.3679	   0.0000	
 46.4353	  79.7220	   0.0000	
 46.9017	  79.8824	   0.0000	
 47.0487	  80.6538	   0.0000	
 45.7678	  81.1781	   0.0000	
 43.2145	  81.3967	   0.0000	
 34.6274	  53.9467	   0.0000	
 33.9477	  55.6610	   0.0000	
 33.2971	  57.2932	   0.0000	
 32.7427	  59.2875	   0.0000	
 32.4647	  61.7227	   0.0000	
 32.2281	  64.4836	   0.0000	
 32.5928	  67.3675	   0.0000	
 33.2270	  70.4058	   0.0000	
 34.4346	  73.4096	   0.0000	
 35.8913	  76.1910	   0.0000	
 38.1144	  78.3317	   0.0000	
 40.2049	  79.6403	   0.0000	
 42.4685	  80.5477	   0.0000	
 44.6450	  80.6463	   0.0000	
 45.7611	  80.3276	   0.0000	
 46.6552	  79.8336	   0.0000	
 46.8076	  79.8515	   0.0000	
 45.8601	  79.7260	   0.0000	
 43.9488	  77.7097	   0.0000	
 32.2937	  54.8463	   0.0000	
 31.3081	  56.7456	   0.0000	
 30.7000	  58.6949	   0.0000	
 29.5935	  60.6885	   0.0000	
 28.9871	  63.5879	   0.0000	
 28.9657	  66.2063	   0.0000	
 29.0713	  69.0835	   0.0000	
 29.7143	  72.2089	   0.0000	
 31.1700	  75.0395	   0.0000	
 33.4950	  77.4055	   0.0000	
 35.9943	  79.7005	   0.0000	
 39.5265	  82.1523	   0.0000	
 42.0367	  82.7445	   0.0000	
 44.5646	  83.0462	   0.0000	
 46.6244	  82.9806	   0.0000	
 47.7261	  81.6660	   0.0000	
 47.5911	  81.1920	   0.0000	
 47.3407	  79.9377	   0.0000	
 45.6267	  78.0546	   0.0000	
 28.4829	  55.7489	   0.0000	
 27.9588	  57.7122	   0.0000	
 27.1707	  59.4968	   0.0000	
 25.7434	  61.6485	   0.0000	
 26.4915	  64.1885	   0.0000	
 26.1962	  67.4207	   0.0000	
 26.3227	  71.6999	   0.0000	
 27.1735	  75.1525	   0.0000	
 28.3551	  78.8513	   0.0000	
 29.4058	  82.9773	   0.0000	
 31.6365	  85.3253	   0.0000	
 32.6485	  87.2823	   0.0000	
 37.0789	  88.6761	   0.0000	
 40.5168	  86.1981	   0.0000	
 41.4311	  84.8960	   0.0000	
 47.4108	  82.7718	   0.0000	
 47.7568	  81.2953	   0.0000	
 47.4178	  80.3152	   0.0000	
 47.7471	  77.9076	   0.0000	
 23.0090	  57.7634	   0.0000	
 22.4729	  60.7368	   0.0000	
 21.7039	  62.2886	   0.0000	
 19.2650	  67.4878	   0.0000	
 17.5910	  69.3732	   0.0000	
 14.9205	  71.7056	   0.0000	
 19.2756	  73.3161	   0.0000	
 19.3552	  76.6693	   0.0000	
 21.3879	  80.3069	   0.0000	
 24.4404	  83.3153	   0.0000	
 28.0258	  85.2882	   0.0000	
 34.0613	  87.6993	   0.0000	
 38.2232	  88.3182	   0.0000	
 52.9587	  93.5066	   0.0000	
 49.4707	  95.6234	   0.0000	
 55.5646	  97.0595	   0.0000	
 54.0296	  88.9968	   0.0000	
 55.4225	  85.8019	   0.0000	
 51.1515	  82.0984	   0.0000	
 19.0880	  57.3991	   0.0000	
 12.3277	  60.9412	   0.0000	
 21.6222	  63.6984	   0.0000	
 24.6743	  61.6615	   0.0000	
 21.2071	  65.7800	   0.0000	
 19.4010	  70.3936	   0.0000	
 17.9484	  75.9444	   0.0000	
 14.7028	  80.5372	   0.0000	
 17.4282	  83.2480	   0.0000	
 18.6590	  86.9143	   0.0000	
 20.3556	  91.9942	   0.0000	
 26.6146	 100.6977	   0.0000	
 24.5626	 101.7063	   0.0000	
 18.1535	 101.0301	   0.0000	
 16.3683	 100.9289	   0.0000	
 23.3723	  98.2698	   0.0000	
 38.3267	 102.8385	   0.0000	
 66.4446	  91.0602	   0.0000	
 52.5371	  83.0221	   0.0000	
 -0.8087	  73.8132	   0.0000	
-11.4508	  72.7663	   0.0000	
  6.7220	  83.4144	   0.0000	
-15.2290	  86.0772	   0.0000	
-12.4445	  98.8990	   0.0000	
 -0.3332	  96.4479	   0.0000	
  9.2002	 101.5193	   0.0000	
  3.9111	 105.6239	   0.0000	
  7.6810	 109.3210	   0.0000	
  1.6947	 114.5921	   0.0000	
  6.3983	 117.7870	   0.0000	
  2.9110	 123.0398	   0.0000	
  3.2316	 127.8309	   0.0000	
  9.2402	 131.7465	   0.0000	
 56.4143	 155.0834	   0.0000	
 81.6267	 140.8968	   0.0000	
 39.2448	 144.4988	   0.0000	
 84.5916	 133.1674	   0.0000	
 79.9885	 135.4599	   0.0000	
 -0.0000	  -0.0000	   0.0000	
 -0.0000	   0.0000	   0.0000	
 -0.0000	  -0.0000	   0.0000	
  0.0000	   0.0000	   0.0000	
  0.0000	  -0.0000	   0.0000	
 -0.0000	   0.0000	   0.0000	
 -0.0000	   0.0000	   0.0000	
  0.0000	  -0.0000	   0.0000	
 -0.0000	   0.0000	   0.0000	
  0.0000	   0.0000	   0.0000	
 -0.0000	   0.0000	   0.0000	
  0.0000	  -0.0000	   0.0000	
  0.0000	   0.0000	   0.0000	
  0.0000	   0.0000	   0.0000	
 -0.0000	  -0.0000	   0.0000	
  0.0000	   0.0000	   0.0000	
 -0.0000	   0.0000	   0.0000	
  0.0000	  -0.0000	   0.0000	
  0.0000	   0.0000	   0.0000	
 50.0000	  50.0000	   0.0000	
 50.0000	   0.0000	   0.0000	
-227.8129	 129.5556	   0.0000	
 99.2706	  27.5179	   0.0000	
-222.8470	 113.3946	   0.0000	
 88.0390	  45.9332	   0.0000	
 41.8746	  74.1412	   0.0000	
 96.1017	  62.8810	   0.0000	
 -9.5303	  53.6136	   0.0000	
 83.1553	  73.9000	   0.0000	
 11.8878	  35.6722	   0.0000	
 78.2225	  87.2305	   0.0000	
 41.5135	  40.6176	   0.0000	
 90.2076	 101.2660	   0.0000	
 38.9335	  43.2344	   0.0000	
 74.5743	  93.3213	   0.0000	
 39.6220	  43.5611	   0.0000	
 69.5570	  92.3905	   0.0000	
 39.5753	  44.9780	   0.0000	
 64.1725	  89.9645	   0.0000	
 39.3578	  46.5659	   0.0000	
 60.3173	  87.7938	   0.0000	
 38.7258	  48.3325	   0.0000	
 55.7248	  85.2443	   0.0000	
 38.0823	  50.2323	   0.0000	
 57.4279	  86.1165	   0.0000	
 36.2352	  52.0231	   0.0000	
 49.4463	  80.6298	   0.0000	
 34.4851	  53.1279	   0.0000	
 50.6702	  80.4848	   0.0000	
 32.0784	  53.8556	   0.0000	
 50.2588	  79.0771	   0.0000	
 28.9483	  54.0642	   0.0000	
 51.7900	  78.1340	   0.0000	
 24.0064	  53.1500	   0.0000	
 57.7343	  77.2986	   0.0000	
 15.1114	  49.8588	   0.0000	
 60.4643	  75.1364	   0.0000	
 -6.4277	  45.1121	   0.0000	
118.4025	  87.5393	   0.0000	
 -0.0000	  -0.0000	   0.0000	
 -0.0000	  -0.0000	   0.0000	
106.8239	  50.0000	   0.0000	
 99.6930	 193.8276	   0.0000	
 21.6788	  36.7862	   0.0000	
 26.2947	 155.6257	   0.0000	
 18.8177	  41.6394	   0.0000	
 12.6449	 142.2893	   0.0000	
 22.4144	  45.2485	   0.0000	
 17.7740	 133.2753	   0.0000	
 23.7120	  43.8154	   0.0000	
 13.9233	 121.0585	   0.0000	
 24.8717	  44.8951	   0.0000	
 16.9819	 114.1959	   0.0000	
 26.5627	  46.0248	   0.0000	
 18.5407	 107.7671	   0.0000	
 28.1308	  47.0742	   0.0000	
 20.8288	 101.6287	   0.0000	
 29.0967	  47.6905	   0.0000	
 22.4371	  96.0674	   0.0000	
 29.9903	  48.1151	   0.0000	
 19.9068	  88.8161	   0.0000	
 31.2386	  48.4626	   0.0000	
 28.5484	  86.7789	   0.0000	
 32.2437	  48.2570	   0.0000	
 26.9908	  80.7551	   0.0000	
 33.2224	  47.6716	   0.0000	
 31.3474	  76.9083	   0.0000	
 33.8238	  46.6903	   0.0000	
 32.7922	  71.8144	   0.0000	
 34.7047	  44.4652	   0.0000	
 34.3469	  65.8554	   0.0000	
 36.3723	  41.7646	   0.0000	
 38.0216	  59.7139	   0.0000	
 42.2942	  36.9536	   0.0000	
 30.6176	  48.7031	   0.0000	
 37.3340	  30.8465	   0.0000	
 43.5090	  37.0784	   0.0000	
 49.5423	  22.0490	   0.0000	
 49.0037	  21.1779	   0.0000	
 65.5449	  17.8609	   0.0000	
 41.1184	  23.1482	   0.0000	
 -0.0000	   0.0000	   0.0000	
 -0.0000	   0.0000	   0.0000	
 11.4083	  50.0000	   0.0000	
-44.0312	  55.8601	   0.0000	
 28.8232	  64.4389	   0.0000	
 -4.7550	  66.8339	   0.0000	
 28.7196	  64.4539	   0.0000	
 -5.1314	  66.0836	   0.0000	
 32.4890	  62.4040	   0.0000	
  2.5212	  66.6873	   0.0000	
 30.6553	  61.8761	   0.0000	
  2.3781	  66.4227	   0.0000	
 33.3407	  60.5330	   0.0000	
  7.8357	  66.7368	   0.0000	
 33.3290	  59.8991	   0.0000	
  9.9552	  66.6088	   0.0000	
 33.8181	  59.3831	   0.0000	
 10.4036	  66.6743	   0.0000	
 35.1040	  58.6380	   0.0000	
 12.8949	  66.0793	   0.0000	
 35.7224	  58.6586	   0.0000	
 16.4521	  65.9060	   0.0000	
 36.1225	  58.3071	   0.0000	
 15.6154	  64.6266	   0.0000	
 37.4300	  58.4705	   0.0000	
 16.1231	  63.7179	   0.0000	
 39.8256	  58.9220	   0.0000	
 15.7604	  62.8724	   0.0000	
 39.8347	  59.7833	   0.0000	
 16.3551	  62.2725	   0.0000	
 42.4581	  61.3199	   0.0000	
 16.2247	  61.3178	   0.0000	
 47.3203	  64.1856	   0.0000	
  9.4534	  62.2300	   0.0000	
 51.0546	  66.8211	   0.0000	
  4.9194	  62.2951	   0.0000	
 55.0018	  70.6420	   0.0000	
 -1.9410	  61.4914	   0.0000	
 85.4376	  87.7080	   0.0000	
 -8.8173	  61.9507	   0.0000	
 55.0662	 100.3738	   0.0000	
 -6.4521	  71.8722	   0.0000	
 47.4301	 100.0739	   0.0000	
 10.5159	  79.9248	   0.0000	
 38.1629	  50.0000	   0.0000	
  2.5589	  61.4580	   0.0000	
 44.0395	  60.1243	   0.0000	
  9.9190	  62.6824	   0.0000	
 38.5461	  57.7540	   0.0000	
  8.1334	  61.0871	   0.0000	
 35.9900	  56.6363	   0.0000	
  6.0840	  61.7625	   0.0000	
 37.7273	  56.9967	   0.0000	
  9.6389	  62.1929	   0.0000	
 35.7701	  56.7155	   0.0000	
  8.4587	  62.1855	   0.0000	
 36.5584	  56.8149	   0.0000	
 10.3931	  62.0781	   0.0000	
 36.3123	  56.9443	   0.0000	
 12.0726	  61.8216	   0.0000	
 35.4992	  56.8493	   0.0000	
 11.8213	  61.4257	   0.0000	
 35.4590	  56.9499	   0.0000	
 14.9679	  61.3217	   0.0000	
 35.3982	  57.1086	   0.0000	
 13.3325	  60.8756	   0.0000	
 35.3669	  57.2683	   0.0000	
 14.8825	  60.8221	   0.0000	
 33.8208	  57.4325	   0.0000	
 17.0664	  60.5925	   0.0000	
 35.3175	  57.8967	   0.0000	
 16.0869	  60.3765	   0.0000	
 33.6833	  58.2435	   0.0000	
 17.7301	  60.1823	   0.0000	
 32.5076	  58.6285	   0.0000	
 19.4653	  60.1297	   0.0000	
 30.2752	  60.1645	   0.0000	
 21.3570	  60.9681	   0.0000	
 27.2495	  61.5953	   0.0000	
 24.0485	  62.4903	   0.0000	
 18.7661	  60.5636	   0.0000	
 30.0513	  63.5660	   0.0000	
  7.2003	  63.0930	   0.0000	
 40.2028	  65.5887	   0.0000	
 21.8102	  63.3105	   0.0000	
 19.3848	  63.8371	   0.0000	
 43.4006	  50.0000	   0.0000	
  0.2420	  46.6625	   0.0000	
 39.8287	  58.4977	   0.0000	
  1.8874	  46.5735	   0.0000	
 39.0541	  58.3311	   0.0000	
  3.1600	  47.3922	   0.0000	
 37.3209	  57.3859	   0.0000	
  2.8382	  48.0695	   0.0000	
 35.5306	  57.3943	   0.0000	
  3.0668	  47.8414	   0.0000	
 36.4033	  57.7540	   0.0000	
  4.3633	  49.2494	   0.0000	
 36.2314	  57.6173	   0.0000	
  5.9850	  49.6141	   0.0000	
 35.8109	  57.3961	   0.0000	
  6.9905	  50.0295	   0.0000	
 35.6476	  57.1214	   0.0000	
  8.6829	  50.5993	   0.0000	
 34.8853	  56.9037	   0.0000	
  8.9234	  51.5768	   0.0000	
 34.9783	  56.9700	   0.0000	
 11.1472	  51.9626	   0.0000	
 34.6574	  56.9916	   0.0000	
 11.4886	  53.0867	   0.0000	
 34.0851	  57.0594	   0.0000	
 13.8182	  53.3692	   0.0000	
 33.8791	  57.3271	   0.0000	
 14.5650	  54.0943	   0.0000	
 33.4513	  57.6371	   0.0000	
 15.2790	  55.1711	   0.0000	
 32.8600	  58.2552	   0.0000	
 16.6578	  55.9330	   0.0000	
 32.9200	  58.8754	   0.0000	
 16.9930	  56.9183	   0.0000	
 33.0994	  59.6351	   0.0000	
 16.6182	  57.8403	   0.0000	
 32.9770	  59.7081	   0.0000	
 17.8475	  58.0116	   0.0000	
 33.2558	  61.0126	   0.0000	
 16.9147	  59.8490	   0.0000	
 48.5712	  63.2460	   0.0000	
  4.7803	  61.1045	   0.0000	
 50.5304	  50.0000	   0.0000	
 -0.1853	  31.6376	   0.0000	
 47.3451	  58.9196	   0.0000	
  1.5683	  32.6640	   0.0000	
 43.9785	  58.5007	   0.0000	
  2.2677	  33.9656	   0.0000	
 45.1779	  59.0151	   0.0000	
  3.4717	  35.3469	   0.0000	
 46.2728	  59.6772	   0.0000	
  4.5517	  36.8224	   0.0000	
 46.4167	  58.8053	   0.0000	
  6.0351	  38.2750	   0.0000	
 42.4560	  54.8542	   0.0000	
  8.5313	  39.4043	   0.0000	
 42.9618	  55.1157	   0.0000	
  9.9411	  40.4866	   0.0000	
 42.1146	  53.6987	   0.0000	
 12.1508	  42.0027	   0.0000	
 40.5060	  53.1817	   0.0000	
 13.4448	  42.8807	   0.0000	
 39.3461	  52.7509	   0.0000	
 14.5320	  44.0277	   0.0000	
 38.2052	  52.5904	   0.0000	
 15.5862	  45.5642	   0.0000	
 37.0373	  52.5542	   0.0000	
 17.6021	  46.2529	   0.0000	
 35.4965	  52.3854	   0.0000	
 17.8691	  47.9584	   0.0000	
 34.4148	  52.6895	   0.0000	
 19.2014	  48.9863	   0.0000	
 33.2199	  52.9473	   0.0000	
 19.8656	  50.0256	   0.0000	
 32.0295	  53.3001	   0.0000	
 21.1033	  50.9035	   0.0000	
 30.7512	  53.6971	   0.0000	
 22.1134	  52.0294	   0.0000	
 29.5258	  54.2128	   0.0000	
 23.0069	  53.1500	   0.0000	
 26.8941	  54.2418	   0.0000	
 25.8760	  53.4862	   0.0000	
 24.2488	  55.4982	   0.0000	
 27.6129	  55.1785	   0.0000	
  0.0000	   0.0000	   0.0000	
  0.0000	   0.0000	   0.0000	
 -0.0000	   0.0000	   0.0000	
 -0.0000	  -0.0000	   0.0000	
 -0.0000	  -0.0000	   0.0000	
  0.0000	   0.0000	   0.0000	
 -0.0000	   0.0000	   0.0000	
 -0.0000	  -0.0000	   0.0000	
 -0.0000	  -0.0000	   0.0000	
 -0.0000	   0.0000	   0.0000	
 -0.0000	   0.0000	   0.0000	
 -0.0000	  -0.0000	   0.0000	
 -0.0000	  -0.0000	   0.0000	
 -0.0000	  -0.0000	   0.0000	