# vtk DataFile Version 3.0 
Results 
ASCII 
DATASET UNSTRUCTURED_GRID 
POINTS 	    1451 float 
  0.0000	   0.6000	  0.0000	 
  0.0000	   1.2000	  0.0000	 
  0.0000	   1.8000	  0.0000	 
  0.0000	   2.4000	  0.0000	 
  0.0000	   3.0000	  0.0000	 
  0.0000	   3.6000	  0.0000	 
  0.0000	   4.2000	  0.0000	 
  0.0000	   4.8000	  0.0000	 
  0.0000	   5.4000	  0.0000	 
  0.0000	   6.0000	  0.0000	 
  0.0000	   6.6000	  0.0000	 
  0.0000	   7.2000	  0.0000	 
  0.0000	   7.8000	  0.0000	 
  0.0000	   8.4000	  0.0000	 
  0.0000	   9.0000	  0.0000	 
  0.0000	   9.6000	  0.0000	 
  0.0000	  10.2000	  0.0000	 
  0.0000	  10.8000	  0.0000	 
  0.0000	  11.4000	  0.0000	 
  0.2250	   0.8475	  0.0000	 
  0.2250	   1.4200	  0.0000	 
  0.2250	   1.9925	  0.0000	 
  0.2250	   2.5650	  0.0000	 
  0.2250	   3.1375	  0.0000	 
  0.2250	   3.7100	  0.0000	 
  0.2250	   4.2825	  0.0000	 
  0.2250	   4.8550	  0.0000	 
  0.2250	   5.4275	  0.0000	 
  0.2250	   6.0000	  0.0000	 
  0.2250	   6.5725	  0.0000	 
  0.2250	   7.1450	  0.0000	 
  0.2250	   7.7175	  0.0000	 
  0.2250	   8.2900	  0.0000	 
  0.2250	   8.8625	  0.0000	 
  0.2250	   9.4350	  0.0000	 
  0.2250	  10.0075	  0.0000	 
  0.2250	  10.5800	  0.0000	 
  0.2250	  11.1525	  0.0000	 
  0.4500	   1.0950	  0.0000	 
  0.4500	   1.6400	  0.0000	 
  0.4500	   2.1850	  0.0000	 
  0.4500	   2.7300	  0.0000	 
  0.4500	   3.2750	  0.0000	 
  0.4500	   3.8200	  0.0000	 
  0.4500	   4.3650	  0.0000	 
  0.4500	   4.9100	  0.0000	 
  0.4500	   5.4550	  0.0000	 
  0.4500	   6.0000	  0.0000	 
  0.4500	   6.5450	  0.0000	 
  0.4500	   7.0900	  0.0000	 
  0.4500	   7.6350	  0.0000	 
  0.4500	   8.1800	  0.0000	 
  0.4500	   8.7250	  0.0000	 
  0.4500	   9.2700	  0.0000	 
  0.4500	   9.8150	  0.0000	 
  0.4500	  10.3600	  0.0000	 
  0.4500	  10.9050	  0.0000	 
  0.6750	   1.3425	  0.0000	 
  0.6750	   1.8600	  0.0000	 
  0.6750	   2.3775	  0.0000	 
  0.6750	   2.8950	  0.0000	 
  0.6750	   3.4125	  0.0000	 
  0.6750	   3.9300	  0.0000	 
  0.6750	   4.4475	  0.0000	 
  0.6750	   4.9650	  0.0000	 
  0.6750	   5.4825	  0.0000	 
  0.6750	   6.0000	  0.0000	 
  0.6750	   6.5175	  0.0000	 
  0.6750	   7.0350	  0.0000	 
  0.6750	   7.5525	  0.0000	 
  0.6750	   8.0700	  0.0000	 
  0.6750	   8.5875	  0.0000	 
  0.6750	   9.1050	  0.0000	 
  0.6750	   9.6225	  0.0000	 
  0.6750	  10.1400	  0.0000	 
  0.6750	  10.6575	  0.0000	 
  0.9000	   1.5900	  0.0000	 
  0.9000	   2.0800	  0.0000	 
  0.9000	   2.5700	  0.0000	 
  0.9000	   3.0600	  0.0000	 
  0.9000	   3.5500	  0.0000	 
  0.9000	   4.0400	  0.0000	 
  0.9000	   4.5300	  0.0000	 
  0.9000	   5.0200	  0.0000	 
  0.9000	   5.5100	  0.0000	 
  0.9000	   6.0000	  0.0000	 
  0.9000	   6.4900	  0.0000	 
  0.9000	   6.9800	  0.0000	 
  0.9000	   7.4700	  0.0000	 
  0.9000	   7.9600	  0.0000	 
  0.9000	   8.4500	  0.0000	 
  0.9000	   8.9400	  0.0000	 
  0.9000	   9.4300	  0.0000	 
  0.9000	   9.9200	  0.0000	 
  0.9000	  10.4100	  0.0000	 
  1.1250	   1.8375	  0.0000	 
  1.1250	   2.3000	  0.0000	 
  1.1250	   2.7625	  0.0000	 
  1.1250	   3.2250	  0.0000	 
  1.1250	   3.6875	  0.0000	 
  1.1250	   4.1500	  0.0000	 
  1.1250	   4.6125	  0.0000	 
  1.1250	   5.0750	  0.0000	 
  1.1250	   5.5375	  0.0000	 
  1.1250	   6.0000	  0.0000	 
  1.1250	   6.4625	  0.0000	 
  1.1250	   6.9250	  0.0000	 
  1.1250	   7.3875	  0.0000	 
  1.1250	   7.8500	  0.0000	 
  1.1250	   8.3125	  0.0000	 
  1.1250	   8.7750	  0.0000	 
  1.1250	   9.2375	  0.0000	 
  1.1250	   9.7000	  0.0000	 
  1.1250	  10.1625	  0.0000	 
  1.3500	   2.0850	  0.0000	 
  1.3500	   2.5200	  0.0000	 
  1.3500	   2.9550	  0.0000	 
  1.3500	   3.3900	  0.0000	 
  1.3500	   3.8250	  0.0000	 
  1.3500	   4.2600	  0.0000	 
  1.3500	   4.6950	  0.0000	 
  1.3500	   5.1300	  0.0000	 
  1.3500	   5.5650	  0.0000	 
  1.3500	   6.0000	  0.0000	 
  1.3500	   6.4350	  0.0000	 
  1.3500	   6.8700	  0.0000	 
  1.3500	   7.3050	  0.0000	 
  1.3500	   7.7400	  0.0000	 
  1.3500	   8.1750	  0.0000	 
  1.3500	   8.6100	  0.0000	 
  1.3500	   9.0450	  0.0000	 
  1.3500	   9.4800	  0.0000	 
  1.3500	   9.9150	  0.0000	 
  1.5750	   2.3325	  0.0000	 
  1.5750	   2.7400	  0.0000	 
  1.5750	   3.1475	  0.0000	 
  1.5750	   3.5550	  0.0000	 
  1.5750	   3.9625	  0.0000	 
  1.5750	   4.3700	  0.0000	 
  1.5750	   4.7775	  0.0000	 
  1.5750	   5.1850	  0.0000	 
  1.5750	   5.5925	  0.0000	 
  1.5750	   6.0000	  0.0000	 
  1.5750	   6.4075	  0.0000	 
  1.5750	   6.8150	  0.0000	 
  1.5750	   7.2225	  0.0000	 
  1.5750	   7.6300	  0.0000	 
  1.5750	   8.0375	  0.0000	 
  1.5750	   8.4450	  0.0000	 
  1.5750	   8.8525	  0.0000	 
  1.5750	   9.2600	  0.0000	 
  1.5750	   9.6675	  0.0000	 
  1.8000	   2.5800	  0.0000	 
  1.8000	   2.9600	  0.0000	 
  1.8000	   3.3400	  0.0000	 
  1.8000	   3.7200	  0.0000	 
  1.8000	   4.1000	  0.0000	 
  1.8000	   4.4800	  0.0000	 
  1.8000	   4.8600	  0.0000	 
  1.8000	   5.2400	  0.0000	 
  1.8000	   5.6200	  0.0000	 
  1.8000	   6.0000	  0.0000	 
  1.8000	   6.3800	  0.0000	 
  1.8000	   6.7600	  0.0000	 
  1.8000	   7.1400	  0.0000	 
  1.8000	   7.5200	  0.0000	 
  1.8000	   7.9000	  0.0000	 
  1.8000	   8.2800	  0.0000	 
  1.8000	   8.6600	  0.0000	 
  1.8000	   9.0400	  0.0000	 
  1.8000	   9.4200	  0.0000	 
  2.0250	   2.8275	  0.0000	 
  2.0250	   3.1800	  0.0000	 
  2.0250	   3.5325	  0.0000	 
  2.0250	   3.8850	  0.0000	 
  2.0250	   4.2375	  0.0000	 
  2.0250	   4.5900	  0.0000	 
  2.0250	   4.9425	  0.0000	 
  2.0250	   5.2950	  0.0000	 
  2.0250	   5.6475	  0.0000	 
  2.0250	   6.0000	  0.0000	 
  2.0250	   6.3525	  0.0000	 
  2.0250	   6.7050	  0.0000	 
  2.0250	   7.0575	  0.0000	 
  2.0250	   7.4100	  0.0000	 
  2.0250	   7.7625	  0.0000	 
  2.0250	   8.1150	  0.0000	 
  2.0250	   8.4675	  0.0000	 
  2.0250	   8.8200	  0.0000	 
  2.0250	   9.1725	  0.0000	 
  2.2500	   3.0750	  0.0000	 
  2.2500	   3.4000	  0.0000	 
  2.2500	   3.7250	  0.0000	 
  2.2500	   4.0500	  0.0000	 
  2.2500	   4.3750	  0.0000	 
  2.2500	   4.7000	  0.0000	 
  2.2500	   5.0250	  0.0000	 
  2.2500	   5.3500	  0.0000	 
  2.2500	   5.6750	  0.0000	 
  2.2500	   6.0000	  0.0000	 
  2.2500	   6.3250	  0.0000	 
  2.2500	   6.6500	  0.0000	 
  2.2500	   6.9750	  0.0000	 
  2.2500	   7.3000	  0.0000	 
  2.2500	   7.6250	  0.0000	 
  2.2500	   7.9500	  0.0000	 
  2.2500	   8.2750	  0.0000	 
  2.2500	   8.6000	  0.0000	 
  2.2500	   8.9250	  0.0000	 
  2.4750	   3.3225	  0.0000	 
  2.4750	   3.6200	  0.0000	 
  2.4750	   3.9175	  0.0000	 
  2.4750	   4.2150	  0.0000	 
  2.4750	   4.5125	  0.0000	 
  2.4750	   4.8100	  0.0000	 
  2.4750	   5.1075	  0.0000	 
  2.4750	   5.4050	  0.0000	 
  2.4750	   5.7025	  0.0000	 
  2.4750	   6.0000	  0.0000	 
  2.4750	   6.2975	  0.0000	 
  2.4750	   6.5950	  0.0000	 
  2.4750	   6.8925	  0.0000	 
  2.4750	   7.1900	  0.0000	 
  2.4750	   7.4875	  0.0000	 
  2.4750	   7.7850	  0.0000	 
  2.4750	   8.0825	  0.0000	 
  2.4750	   8.3800	  0.0000	 
  2.4750	   8.6775	  0.0000	 
  2.7000	   3.5700	  0.0000	 
  2.7000	   3.8400	  0.0000	 
  2.7000	   4.1100	  0.0000	 
  2.7000	   4.3800	  0.0000	 
  2.7000	   4.6500	  0.0000	 
  2.7000	   4.9200	  0.0000	 
  2.7000	   5.1900	  0.0000	 
  2.7000	   5.4600	  0.0000	 
  2.7000	   5.7300	  0.0000	 
  2.7000	   6.0000	  0.0000	 
  2.7000	   6.2700	  0.0000	 
  2.7000	   6.5400	  0.0000	 
  2.7000	   6.8100	  0.0000	 
  2.7000	   7.0800	  0.0000	 
  2.7000	   7.3500	  0.0000	 
  2.7000	   7.6200	  0.0000	 
  2.7000	   7.8900	  0.0000	 
  2.7000	   8.1600	  0.0000	 
  2.7000	   8.4300	  0.0000	 
  2.9250	   3.8175	  0.0000	 
  2.9250	   4.0600	  0.0000	 
  2.9250	   4.3025	  0.0000	 
  2.9250	   4.5450	  0.0000	 
  2.9250	   4.7875	  0.0000	 
  2.9250	   5.0300	  0.0000	 
  2.9250	   5.2725	  0.0000	 
  2.9250	   5.5150	  0.0000	 
  2.9250	   5.7575	  0.0000	 
  2.9250	   6.0000	  0.0000	 
  2.9250	   6.2425	  0.0000	 
  2.9250	   6.4850	  0.0000	 
  2.9250	   6.7275	  0.0000	 
  2.9250	   6.9700	  0.0000	 
  2.9250	   7.2125	  0.0000	 
  2.9250	   7.4550	  0.0000	 
  2.9250	   7.6975	  0.0000	 
  2.9250	   7.9400	  0.0000	 
  2.9250	   8.1825	  0.0000	 
  3.1500	   4.0650	  0.0000	 
  3.1500	   4.2800	  0.0000	 
  3.1500	   4.4950	  0.0000	 
  3.1500	   4.7100	  0.0000	 
  3.1500	   4.9250	  0.0000	 
  3.1500	   5.1400	  0.0000	 
  3.1500	   5.3550	  0.0000	 
  3.1500	   5.5700	  0.0000	 
  3.1500	   5.7850	  0.0000	 
  3.1500	   6.0000	  0.0000	 
  3.1500	   6.2150	  0.0000	 
  3.1500	   6.4300	  0.0000	 
  3.1500	   6.6450	  0.0000	 
  3.1500	   6.8600	  0.0000	 
  3.1500	   7.0750	  0.0000	 
  3.1500	   7.2900	  0.0000	 
  3.1500	   7.5050	  0.0000	 
  3.1500	   7.7200	  0.0000	 
  3.1500	   7.9350	  0.0000	 
  3.3750	   4.3125	  0.0000	 
  3.3750	   4.5000	  0.0000	 
  3.3750	   4.6875	  0.0000	 
  3.3750	   4.8750	  0.0000	 
  3.3750	   5.0625	  0.0000	 
  3.3750	   5.2500	  0.0000	 
  3.3750	   5.4375	  0.0000	 
  3.3750	   5.6250	  0.0000	 
  3.3750	   5.8125	  0.0000	 
  3.3750	   6.0000	  0.0000	 
  3.3750	   6.1875	  0.0000	 
  3.3750	   6.3750	  0.0000	 
  3.3750	   6.5625	  0.0000	 
  3.3750	   6.7500	  0.0000	 
  3.3750	   6.9375	  0.0000	 
  3.3750	   7.1250	  0.0000	 
  3.3750	   7.3125	  0.0000	 
  3.3750	   7.5000	  0.0000	 
  3.3750	   7.6875	  0.0000	 
  3.6000	   4.5600	  0.0000	 
  3.6000	   4.7200	  0.0000	 
  3.6000	   4.8800	  0.0000	 
  3.6000	   5.0400	  0.0000	 
  3.6000	   5.2000	  0.0000	 
  3.6000	   5.3600	  0.0000	 
  3.6000	   5.5200	  0.0000	 
  3.6000	   5.6800	  0.0000	 
  3.6000	   5.8400	  0.0000	 
  3.6000	   6.0000	  0.0000	 
  3.6000	   6.1600	  0.0000	 
  3.6000	   6.3200	  0.0000	 
  3.6000	   6.4800	  0.0000	 
  3.6000	   6.6400	  0.0000	 
  3.6000	   6.8000	  0.0000	 
  3.6000	   6.9600	  0.0000	 
  3.6000	   7.1200	  0.0000	 
  3.6000	   7.2800	  0.0000	 
  3.6000	   7.4400	  0.0000	 
  3.8250	   4.8075	  0.0000	 
  3.8250	   4.9400	  0.0000	 
  3.8250	   5.0725	  0.0000	 
  3.8250	   5.2050	  0.0000	 
  3.8250	   5.3375	  0.0000	 
  3.8250	   5.4700	  0.0000	 
  3.8250	   5.6025	  0.0000	 
[...]
POINT_DATA 	    1451 
VECTORS U float 
 50.0000	   0.0000	   0.0000	
 50.0000	   0.0000	   0.0000	
 50.0000	   0.0000	   0.0000	
 50.0000	   0.0000	   0.0000	
 50.0000	  -0.0000	   0.0000	
 50.0000	  -0.0000	   0.0000	
 50.0000	   0.0000	   0.0000	
 50.0000	  -0.0000	   0.0000	
 50.0000	  -0.0000	   0.0000	
 50.0000	   0.0000	   0.0000	
 50.0000	  -0.0000	   0.0000	
 50.0000	  -0.0000	   0.0000	
 50.0000	   0.0000	   0.0000	
 50.0000	   0.0000	   0.0000	
 50.0000	  -0.0000	   0.0000	
 50.0000	  -0.0000	   0.0000	
 50.0000	   0.0000	   0.0000	
 50.0000	   0.0000	   0.0000	
 50.0000	  -0.0000	   0.0000	
 48.6509	   8.5509	   0.0000	
 50.9142	  12.0267	   0.0000	
 49.9961	  17.3951	   0.0000	
 49.9331	  20.0920	   0.0000	
 50.4944	  14.8662	   0.0000	
 49.0826	  30.3755	   0.0000	
 49.1044	  38.0354	   0.0000	
 49.4680	  44.3590	   0.0000	
 49.6391	  47.8462	   0.0000	
 49.6572	  50.4734	   0.0000	
 49.9357	  50.4809	   0.0000	
 50.7271	  48.7235	   0.0000	
 50.4002	  42.5514	   0.0000	
 51.5995	  35.2375	   0.0000	
 49.7848	  31.5123	   0.0000	
 50.3168	  22.8706	   0.0000	
 50.2748	  25.0994	   0.0000	
 48.9899	  23.5152	   0.0000	
 50.9586	  21.6476	   0.0000	
 47.4222	  16.4917	   0.0000	
 44.9158	  29.2968	   0.0000	
 47.9906	  39.2221	   0.0000	
 53.3600	  30.6534	   0.0000	
 39.3231	  49.2996	   0.0000	
 43.5714	  50.2496	   0.0000	
 44.4541	  64.7059	   0.0000	
 46.7606	  73.3132	   0.0000	
 48.6208	  76.0749	   0.0000	
 48.6482	  77.7082	   0.0000	
 50.0063	  80.2879	   0.0000	
 51.6808	  81.4389	   0.0000	
 55.1847	  78.1532	   0.0000	
 57.0453	  63.0861	   0.0000	
 50.0582	  60.0751	   0.0000	
 57.1217	  57.7728	   0.0000	
 47.4932	  44.2755	   0.0000	
 51.7196	  46.9696	   0.0000	
 51.8226	  45.3665	   0.0000	
 39.2817	  28.7326	   0.0000	
 40.4762	  53.2027	   0.0000	
 56.7659	  43.0376	   0.0000	
 41.3221	  61.7215	   0.0000	
 44.8960	  55.6915	   0.0000	
 38.5259	  62.0451	   0.0000	
 42.4445	  65.8212	   0.0000	
 46.5239	  65.3363	   0.0000	
 47.4706	  67.9350	   0.0000	
 47.4050	  70.7301	   0.0000	
 49.3948	  73.9175	   0.0000	
 50.1174	  74.6647	   0.0000	
 53.8048	  81.3427	   0.0000	
 62.5100	  83.6566	   0.0000	
 52.0904	  77.3202	   0.0000	
 53.9630	  78.9093	   0.0000	
 58.6002	  76.7683	   0.0000	
 48.9111	  64.3647	   0.0000	
 50.0633	  64.7626	   0.0000	
 22.7639	  52.2170	   0.0000	
 54.7137	  49.7421	   0.0000	
 41.6652	  68.3492	   0.0000	
 43.5530	  64.7228	   0.0000	
 40.8835	  65.9296	   0.0000	
 38.2361	  64.2440	   0.0000	
 42.8287	  65.9352	   0.0000	
 45.8052	  68.8862	   0.0000	
 46.6629	  70.6908	   0.0000	
 46.7355	  72.6765	   0.0000	
 47.5340	  73.4814	   0.0000	
 49.4882	  77.3653	   0.0000	
 50.7258	  77.5421	   0.0000	
 59.2788	  80.3676	   0.0000	
 57.4397	  88.8033	   0.0000	
 50.1416	  86.9827	   0.0000	
 59.8201	  92.4268	   0.0000	
 55.8271	  90.1732	   0.0000	
 51.4778	  77.4607	   0.0000	
 42.8770	  51.2775	   0.0000	
 40.5787	  69.9436	   0.0000	
 42.9611	  70.1541	   0.0000	
 44.3692	  70.7940	   0.0000	
 40.9198	  66.7896	   0.0000	
 38.8344	  64.0139	   0.0000	
 41.7468	  66.4465	   0.0000	
 45.0600	  68.2312	   0.0000	
 45.2224	  70.6984	   0.0000	
 45.6270	  73.0874	   0.0000	
 47.8145	  74.9729	   0.0000	
 47.4602	  74.5508	   0.0000	
 50.3994	  79.0272	   0.0000	
 56.5192	  77.3559	   0.0000	
 53.8699	  83.5357	   0.0000	
 50.8110	  94.8877	   0.0000	
 52.9940	  93.3690	   0.0000	
 59.5586	 101.6229	   0.0000	
 60.3006	 102.1439	   0.0000	
 39.3600	  68.3936	   0.0000	
 40.2351	  69.0636	   0.0000	
 43.5154	  69.6278	   0.0000	
 45.6834	  68.3724	   0.0000	
 41.2486	  66.4776	   0.0000	
 38.6692	  65.8833	   0.0000	
 41.9767	  67.0073	   0.0000	
 44.0083	  69.2148	   0.0000	
 44.3919	  71.6873	   0.0000	
 44.4802	  73.6493	   0.0000	
 46.4617	  76.4790	   0.0000	
 47.6745	  78.2195	   0.0000	
 47.0536	  78.6815	   0.0000	
 55.7788	  82.3962	   0.0000	
 52.4830	  84.5292	   0.0000	
 46.0157	  89.5508	   0.0000	
 51.7340	  94.9238	   0.0000	
 52.1835	  98.3785	   0.0000	
 54.7433	 111.0356	   0.0000	
 41.3742	  61.5684	   0.0000	
 41.6641	  60.0623	   0.0000	
 44.7995	  61.4790	   0.0000	
 44.2920	  63.8045	   0.0000	
 40.1206	  64.9391	   0.0000	
 38.9009	  64.0959	   0.0000	
 40.6886	  66.8529	   0.0000	
 42.7938	  70.0093	   0.0000	
 42.9031	  72.2091	   0.0000	
 43.6964	  74.0752	   0.0000	
 45.2566	  74.8850	   0.0000	
 46.4213	  77.4357	   0.0000	
 47.2211	  79.1360	   0.0000	
 51.5000	  77.2314	   0.0000	
 52.7099	  84.4993	   0.0000	
 47.0922	  85.2643	   0.0000	
 46.3191	  83.2474	   0.0000	
 50.9985	  88.2462	   0.0000	
 45.7522	  93.8835	   0.0000	
 41.6524	  60.5572	   0.0000	
 42.3014	  60.0413	   0.0000	
 43.0703	  63.7581	   0.0000	
 41.5410	  67.6545	   0.0000	
 40.1673	  66.8270	   0.0000	
 38.0990	  66.8036	   0.0000	
 39.5033	  69.4806	   0.0000	
 41.8085	  71.0739	   0.0000	
 42.0104	  73.0906	   0.0000	
 42.3415	  75.2561	   0.0000	
 44.7229	  77.7500	   0.0000	
 44.8113	  77.8819	   0.0000	
 45.9567	  81.1632	   0.0000	
 51.6825	  80.8043	   0.0000	
 48.3849	  81.8252	   0.0000	
 49.5115	  88.8468	   0.0000	
 48.2261	  84.8268	   0.0000	
 45.9931	  83.8874	   0.0000	
 46.2820	  91.8546	   0.0000	
 42.7773	  59.2959	   0.0000	
 40.1434	  60.6423	   0.0000	
 40.4228	  64.8953	   0.0000	
 41.7134	  65.0156	   0.0000	
 38.8789	  65.8874	   0.0000	
 37.1901	  67.0035	   0.0000	
 38.9192	  68.3929	   0.0000	
 40.5192	  71.2173	   0.0000	
 40.4218	  73.7942	   0.0000	
 41.1943	  75.8408	   0.0000	
 43.2436	  77.6027	   0.0000	
 44.8122	  79.8088	   0.0000	
 43.7293	  79.9103	   0.0000	
 50.0532	  81.2669	   0.0000	
 49.4931	  83.5145	   0.0000	
 44.6264	  84.0143	   0.0000	
 50.4931	  88.2429	   0.0000	
 48.2270	  86.9703	   0.0000	
 40.7692	  90.2810	   0.0000	
 40.1889	  60.0057	   0.0000	
 37.3805	  61.5869	   0.0000	
 41.3270	  63.3193	   0.0000	
 39.4813	  64.8903	   0.0000	
 37.1320	  66.7874	   0.0000	
 36.8217	  67.0102	   0.0000	
 37.2654	  69.8630	   0.0000	
 38.8203	  72.8078	   0.0000	
 39.1356	  75.0438	   0.0000	
 39.9220	  76.6721	   0.0000	
 42.1852	  78.2945	   0.0000	
 42.9592	  79.2730	   0.0000	
 44.0803	  81.7944	   0.0000	
 47.5698	  79.1730	   0.0000	
 48.3630	  82.5686	   0.0000	
 47.6110	  83.3449	   0.0000	
 43.7155	  82.0435	   0.0000	
 50.7322	  86.8846	   0.0000	
 44.4945	  87.5812	   0.0000	
 37.1796	  62.1064	   0.0000	
 39.2370	  61.4363	   0.0000	
 39.1281	  63.7525	   0.0000	
 36.9140	  65.8406	   0.0000	
 36.6079	  66.6329	   0.0000	
 35.0994	  68.4017	   0.0000	
 35.4661	  70.8369	   0.0000	
 37.3293	  73.2147	   0.0000	
 37.8392	  75.1156	   0.0000	
 38.1182	  77.6509	   0.0000	
 41.2645	  80.1412	   0.0000	
 42.2275	  80.8475	   0.0000	
 42.3708	  81.8275	   0.0000	
 48.3016	  81.7646	   0.0000	
 45.7368	  81.8275	   0.0000	
 47.8726	  84.2514	   0.0000	
 46.3299	  84.7839	   0.0000	
 42.6286	  85.5135	   0.0000	
 48.6121	  90.8129	   0.0000	
 39.5963	  60.8443	   0.0000	
 36.6390	  61.9860	   0.0000	
 36.6475	  65.5268	   0.0000	
 35.7530	  65.5874	   0.0000	
 34.4447	  67.7905	   0.0000	
 33.4676	  69.1507	   0.0000	
 34.1316	  71.1776	   0.0000	
 35.9119	  73.5424	   0.0000	
 35.7408	  76.4029	   0.0000	
 36.3883	  78.7234	   0.0000	
 38.8886	  80.9324	   0.0000	
 41.4693	  83.4171	   0.0000	
 42.0152	  84.0384	   0.0000	
 45.9927	  82.2315	   0.0000	
 46.9001	  85.0412	   0.0000	
 44.8613	  84.7529	   0.0000	
 45.6455	  88.9031	   0.0000	
 46.5364	  88.4529	   0.0000	
 38.8515	  88.6169	   0.0000	
 35.9140	  57.9730	   0.0000	
 32.4760	  59.9740	   0.0000	
 36.1092	  64.3079	   0.0000	
 32.6176	  66.4466	   0.0000	
 32.3727	  69.4131	   0.0000	
 32.2842	  70.8657	   0.0000	
 32.0807	  73.0327	   0.0000	
 33.1176	  77.0170	   0.0000	
 33.4467	  80.1287	   0.0000	
 35.7426	  80.8066	   0.0000	
 37.4176	  80.9187	   0.0000	
 38.3972	  82.3524	   0.0000	
 41.7139	  85.2691	   0.0000	
 46.2877	  83.2960	   0.0000	
 43.7897	  84.6090	   0.0000	
 46.5031	  86.0774	   0.0000	
 41.3368	  87.2386	   0.0000	
 48.2737	  84.9430	   0.0000	
 48.1682	  78.6479	   0.0000	
 30.9795	  59.4628	   0.0000	
 30.5273	  60.5902	   0.0000	
 30.9762	  65.4671	   0.0000	
 29.4878	  66.4289	   0.0000	
 30.4922	  68.9672	   0.0000	
 30.1996	  70.8281	   0.0000	
 28.4695	  73.8575	   0.0000	
 30.1721	  76.7890	   0.0000	
 32.9407	  77.6799	   0.0000	
 31.8993	  81.0622	   0.0000	
 38.1314	  84.8638	   0.0000	
 36.4866	  83.4626	   0.0000	
 38.5056	  84.7539	   0.0000	
 45.7182	  84.5280	   0.0000	
 43.3848	  86.9637	   0.0000	
 43.6133	  87.6864	   0.0000	
 44.5114	  90.2122	   0.0000	
 47.2740	  83.4053	   0.0000	
 53.9529	  76.5655	   0.0000	
 27.3159	  58.3544	   0.0000	
 24.7760	  64.5680	   0.0000	
 28.2999	  69.1912	   0.0000	
 28.0273	  71.1279	   0.0000	
 28.4336	  72.9572	   0.0000	
 26.7867	  74.1900	   0.0000	
 26.6776	  74.6200	   0.0000	
 30.6866	  74.4023	   0.0000	
 29.1151	  77.0863	   0.0000	
 27.1358	  81.2906	   0.0000	
 32.8341	  85.8574	   0.0000	
 38.4762	  89.5891	   0.0000	
 37.7867	  88.0690	   0.0000	
 39.8729	  88.8561	   0.0000	
 41.5414	  96.1991	   0.0000	
 41.8857	  98.5092	   0.0000	
 42.8517	  96.9662	   0.0000	
 55.6706	  87.5903	   0.0000	
 53.9405	  77.3319	   0.0000	
 20.4876	  56.0776	   0.0000	
 24.2488	  60.8116	   0.0000	
 16.8388	  67.9945	   0.0000	
 25.1419	  78.0150	   0.0000	
 25.5491	  81.9210	   0.0000	
 27.6321	  82.7710	   0.0000	
 28.9616	  81.2896	   0.0000	
 27.0156	  83.6292	   0.0000	
 23.0772	  88.2621	   0.0000	
 28.6057	  87.4263	   0.0000	
 26.1691	  86.2965	   0.0000	
 30.1437	  92.4881	   0.0000	
 40.3315	  97.5177	   0.0000	
 36.3660	  95.4525	   0.0000	
 29.0400	 102.8485	   0.0000	
 39.4849	 103.2752	   0.0000	
 52.3059	  93.6697	   0.0000	
 49.5584	  85.5080	   0.0000	
 64.9178	  73.0536	   0.0000	
  7.9050	  51.3989	   0.0000	
  5.3403	  58.0896	   0.0000	
 16.8154	  64.7143	   0.0000	
 18.3355	  70.4997	   0.0000	
 24.9360	  74.3583	   0.0000	
 31.5613	  74.2148	   0.0000	
 24.1385	  74.0049	   0.0000	
 18.4462	  77.4672	   0.0000	
 25.1835	  77.0232	   0.0000	
 19.6208	  81.3881	   0.0000	
 28.7171	  87.1535	   0.0000	
 17.1734	  87.1274	   0.0000	
 24.5915	  95.7233	   0.0000	
 43.7288	  98.8357	   0.0000	
 21.6424	 108.1984	   0.0000	
 33.1400	 112.7020	   0.0000	
 42.1607	 103.9754	   0.0000	
 64.0519	  96.8187	   0.0000	
 70.5195	  82.9466	   0.0000	
  1.0448	  56.8519	   0.0000	
  6.2303	  67.0669	   0.0000	
 11.3078	  73.9860	   0.0000	
 26.2803	  80.1377	   0.0000	
 33.5168	  83.5970	   0.0000	
 21.5593	  81.8614	   0.0000	
 13.0409	  88.1145	   0.0000	
 20.7574	  91.6112	   0.0000	
 16.0264	  97.1806	   0.0000	
 15.4483	 101.0945	   0.0000	
 14.5513	 103.5830	   0.0000	
 19.4430	 111.4087	   0.0000	
  3.7966	 116.1441	   0.0000	
 20.0063	 120.9516	   0.0000	
 15.7235	 135.3767	   0.0000	
  7.0277	 146.5426	   0.0000	
 28.8653	 139.3841	   0.0000	
 64.1174	 118.5675	   0.0000	
 72.3717	  93.2070	   0.0000	
 -3.3620	  38.2032	   0.0000	
  4.2925	  45.1066	   0.0000	
 16.7082	  52.8849	   0.0000	
 23.7016	  61.2648	   0.0000	
  1.8844	  68.5647	   0.0000	
 -0.2405	  70.0395	   0.0000	
 10.1600	  74.5433	   0.0000	
 -0.2354	  78.7515	   0.0000	
  7.9606	  82.2814	   0.0000	
 -0.2841	  85.7820	   0.0000	
  9.7480	  89.7770	   0.0000	
 -2.1160	  93.1937	   0.0000	
  8.2657	  95.5385	   0.0000	
 -1.1386	  98.7459	   0.0000	
 -0.0830	  98.1654	   0.0000	
 -4.3959	 103.4363	   0.0000	
 -0.6189	 101.7094	   0.0000	
 24.1597	  97.6212	   0.0000	
 63.3463	  85.9218	   0.0000	
 -0.0000	  -0.0000	   0.0000	
  0.0000	   0.0000	   0.0000	
 -0.0000	   0.0000	   0.0000	
 -0.0000	   0.0000	   0.0000	
  0.0000	  -0.0000	   0.0000	
 -0.0000	   0.0000	   0.0000	
  0.0000	   0.0000	   0.0000	
  0.0000	  -0.0000	   0.0000	
 -0.0000	  -0.0000	   0.0000	
  0.0000	   0.0000	   0.0000	
  0.0000	   0.0000	   0.0000	
  0.0000	  -0.0000	   0.0000	
 -0.0000	  -0.0000	   0.0000	
 -0.0000	   0.0000	   0.0000	
 -0.0000	  -0.0000	   0.0000	
 -0.0000	  -0.0000	   0.0000	
  0.0000	  -0.0000	   0.0000	
 -0.0000	  -0.0000	   0.0000	
  0.0000	   0.0000	   0.0000	
 50.0000	  50.0000	   0.0000	
 50.0000	  -0.0000	   0.0000	
 69.4407	  49.8229	   0.0000	
 49.8547	  17.1560	   0.0000	
 85.9817	  50.0015	   0.0000	
 52.6492	  34.9438	   0.0000	
 77.9657	  55.8677	   0.0000	
 60.5291	  53.7911	   0.0000	
 73.1140	  60.8805	   0.0000	
 62.1503	  70.5025	   0.0000	
 43.0083	  80.0700	   0.0000	
 54.6285	  81.2737	   0.0000	
 48.5529	  73.7832	   0.0000	
 73.8002	 101.7226	   0.0000	
 44.7990	  73.7115	   0.0000	
 65.5040	  92.0581	   0.0000	
 49.1253	  67.9496	   0.0000	
 53.3422	  81.9536	   0.0000	
 47.7467	  66.6570	   0.0000	
 55.8396	  80.9711	   0.0000	
 47.7248	  64.2958	   0.0000	
 50.8324	  75.9616	   0.0000	
 43.2308	  64.5089	   0.0000	
 55.0193	  76.4324	   0.0000	
 39.1521	  63.5741	   0.0000	
 61.2734	  76.6368	   0.0000	
 40.8468	  58.9304	   0.0000	
 48.5200	  67.9494	   0.0000	
 34.3645	  57.3801	   0.0000	
 56.8920	  68.8415	   0.0000	
 28.6450	  54.8707	   0.0000	
 62.0720	  67.2649	   0.0000	
 18.4162	  53.0733	   0.0000	
 67.2289	  64.6831	   0.0000	
 16.9383	  43.6131	   0.0000	
 76.5774	  61.0090	   0.0000	
-10.7209	  45.0678	   0.0000	
100.3745	  63.4644	   0.0000	
-13.9723	  29.0387	   0.0000	
118.2298	  57.1150	   0.0000	
 -0.0000	   0.0000	   0.0000	
 -0.0000	  -0.0000	   0.0000	
 50.9398	  50.0000	   0.0000	
 91.6882	 162.9385	   0.0000	
 45.7344	  50.0102	   0.0000	
 54.2028	 144.2521	   0.0000	
 44.3973	  49.8431	   0.0000	
 34.5919	 127.7564	   0.0000	
 42.6294	  48.8959	   0.0000	
 21.5538	 113.6761	   0.0000	
 43.2969	  47.7521	   0.0000	
 22.0150	 107.9186	   0.0000	
 45.1294	  46.3378	   0.0000	
 20.3479	 102.8468	   0.0000	
 43.2116	  46.5909	   0.0000	
 23.6066	 100.1130	   0.0000	
 44.2180	  45.9281	   0.0000	
 22.2533	  95.5274	   0.0000	
 43.2180	  45.4000	   0.0000	
 24.1468	  91.7522	   0.0000	
 40.8723	  45.4864	   0.0000	
 26.5616	  88.0342	   0.0000	
 39.9833	  44.6205	   0.0000	
 33.9028	  86.2259	   0.0000	
 45.2964	  41.6389	   0.0000	
 25.1798	  78.4530	   0.0000	
 40.5173	  41.9759	   0.0000	
 32.5336	  76.6581	   0.0000	
 41.0854	  39.2452	   0.0000	
 34.5019	  71.9229	   0.0000	
 39.6586	  35.2196	   0.0000	
 35.9166	  65.8096	   0.0000	
 41.3050	  30.0910	   0.0000	
 39.9764	  57.4635	   0.0000	
 30.1102	  27.8736	   0.0000	
 53.1731	  51.1547	   0.0000	
 19.0221	  22.2687	   0.0000	
 69.3521	  42.4327	   0.0000	
 40.6805	   2.9717	   0.0000	
 61.9521	  23.0136	   0.0000	
 28.4526	   0.5041	   0.0000	
 -4.5334	  -1.4209	   0.0000	
 -0.0000	   0.0000	   0.0000	
 -0.0000	  -0.0000	   0.0000	
 51.0282	  50.0000	   0.0000	
-46.5316	  64.9175	   0.0000	
 50.3469	  50.4535	   0.0000	
-13.7875	  66.8258	   0.0000	
 47.1143	  50.8325	   0.0000	
  1.3877	  66.8502	   0.0000	
 44.6362	  52.2171	   0.0000	
  8.6341	  66.7069	   0.0000	
 45.8833	  52.3721	   0.0000	
 10.6160	  65.4409	   0.0000	
 45.0017	  53.1095	   0.0000	
 10.0320	  64.2565	   0.0000	
 45.8557	  53.9062	   0.0000	
 11.6019	  63.2017	   0.0000	
 46.1212	  53.8373	   0.0000	
 13.2470	  61.6791	   0.0000	
 45.1665	  54.7702	   0.0000	
 15.9462	  60.5039	   0.0000	
 44.1961	  55.6079	   0.0000	
 18.8845	  59.5731	   0.0000	
 47.6646	  55.6210	   0.0000	
 15.2135	  58.0816	   0.0000	
 48.5406	  56.4195	   0.0000	
 17.1111	  56.1775	   0.0000	
 53.8267	  56.7733	   0.0000	
 16.8293	  53.9730	   0.0000	
 55.7047	  57.9166	   0.0000	
  7.7939	  51.1532	   0.0000	
 58.2915	  58.8774	   0.0000	
 10.4872	  49.2400	   0.0000	
 63.5038	  57.4372	   0.0000	
 10.1512	  44.1122	   0.0000	
 63.1044	  57.0495	   0.0000	
 17.5173	  39.8121	   0.0000	
 72.0117	  58.4493	   0.0000	
 22.3610	  35.9349	   0.0000	
 69.8848	  57.9325	   0.0000	
 -2.2789	  36.8232	   0.0000	
 42.9616	  58.1985	   0.0000	
  0.6602	  42.6330	   0.0000	
 28.9887	  56.4269	   0.0000	
  1.4499	  45.3688	   0.0000	
 45.5102	  50.0000	   0.0000	
 10.6563	  53.3929	   0.0000	
 42.6309	  50.2407	   0.0000	
 -2.3526	  58.5297	   0.0000	
 41.1064	  50.4546	   0.0000	
  2.3999	  59.0766	   0.0000	
 38.7087	  50.1256	   0.0000	
  5.2124	  58.7271	   0.0000	
 39.6542	  50.6532	   0.0000	
  6.5256	  58.6990	   0.0000	
 40.7757	  51.1332	   0.0000	
  6.3906	  59.0531	   0.0000	
 39.3333	  51.0900	   0.0000	
 10.5261	  58.1734	   0.0000	
 39.9166	  51.8552	   0.0000	
  9.1360	  59.2867	   0.0000	
 40.9918	  52.4745	   0.0000	
 11.2237	  58.6506	   0.0000	
 39.1565	  52.7601	   0.0000	
 12.8553	  58.3701	   0.0000	
 42.9180	  53.8731	   0.0000	
 13.8369	  58.6120	   0.0000	
 39.8849	  54.0173	   0.0000	
 14.7778	  58.0845	   0.0000	
 40.0825	  55.6895	   0.0000	
 11.7310	  59.6145	   0.0000	
 43.7577	  58.3139	   0.0000	
 13.3606	  60.7509	   0.0000	
 41.5895	  59.5536	   0.0000	
 13.1772	  61.1066	   0.0000	
 46.7108	  64.2857	   0.0000	
  7.8453	  64.3009	   0.0000	
 44.9885	  67.8625	   0.0000	
  8.9125	  65.1077	   0.0000	
 44.4665	  73.0711	   0.0000	
 13.2783	  65.4286	   0.0000	
 48.4183	  79.3196	   0.0000	
 20.9523	  62.9195	   0.0000	
 39.5650	  87.5108	   0.0000	
 18.7458	  70.8267	   0.0000	
 17.7369	  89.9637	   0.0000	
 23.4382	  74.9139	   0.0000	
 42.5089	  50.0000	   0.0000	
 -1.5864	  45.6322	   0.0000	
 42.9036	  50.0212	   0.0000	
  2.2065	  44.8492	   0.0000	
 42.5024	  50.5209	   0.0000	
  4.6973	  44.1040	   0.0000	
 41.1318	  50.0668	   0.0000	
  7.7640	  43.3027	   0.0000	
 42.2044	  50.6210	   0.0000	
  7.2582	  44.3505	   0.0000	
 41.9261	  50.1686	   0.0000	
  5.6239	  46.4999	   0.0000	
 41.4093	  49.8694	   0.0000	
  6.9857	  46.7041	   0.0000	
 41.0501	  49.6725	   0.0000	
  7.3431	  47.9836	   0.0000	
 40.5763	  49.6546	   0.0000	
  9.7014	  47.9742	   0.0000	
 39.1213	  49.0075	   0.0000	
 11.3924	  48.0765	   0.0000	
 40.2364	  49.8507	   0.0000	
  9.3973	  50.1118	   0.0000	
 38.4188	  49.2927	   0.0000	
 13.9470	  48.8760	   0.0000	
 39.6034	  50.6481	   0.0000	
 14.1378	  49.8138	   0.0000	
 37.4201	  49.9304	   0.0000	
 14.1221	  50.5539	   0.0000	
 38.4229	  51.3915	   0.0000	
 15.0026	  51.7192	   0.0000	
 37.2039	  51.7133	   0.0000	
 15.9168	  52.2041	   0.0000	
 35.5406	  52.7435	   0.0000	
 16.5280	  53.9480	   0.0000	
 37.8201	  56.6055	   0.0000	
 14.6609	  58.0974	   0.0000	
 32.2475	  56.7149	   0.0000	
 22.2533	  58.3192	   0.0000	
 36.7733	  62.2493	   0.0000	
 17.4370	  62.4044	   0.0000	
 11.5423	  59.7852	   0.0000	
 38.8571	  56.4152	   0.0000	
 49.6784	  50.0000	   0.0000	
  0.4101	  29.5436	   0.0000	
 47.2144	  49.3274	   0.0000	
  1.7721	  31.0193	   0.0000	
 44.5737	  48.6167	   0.0000	
  3.0980	  32.4822	   0.0000	
 43.9745	  48.4243	   0.0000	
  4.0263	  34.0720	   0.0000	
 45.6556	  49.0318	   0.0000	
  6.5782	  35.0141	   0.0000	
 45.3191	  48.7099	   0.0000	
  7.5425	  36.8312	   0.0000	
 41.8220	  46.1006	   0.0000	
  8.0629	  38.3147	   0.0000	
 41.4086	  46.2229	   0.0000	
  9.2690	  38.6012	   0.0000	
 41.1108	  46.9785	   0.0000	
 10.2461	  39.0244	   0.0000	
 39.6359	  47.2962	   0.0000	
 11.7921	  40.2224	   0.0000	
 39.0675	  47.6489	   0.0000	
 13.2730	  41.5601	   0.0000	
 37.8228	  48.1162	   0.0000	
 14.7454	  42.5614	   0.0000	
 36.9442	  48.5088	   0.0000	
 15.7941	  44.2905	   0.0000	
 36.6318	  49.7085	   0.0000	
 15.4550	  46.7064	   0.0000	
 36.0726	  49.6489	   0.0000	
 16.8472	  46.6849	   0.0000	
 33.9411	  50.2501	   0.0000	
 17.9650	  47.8115	   0.0000	
 33.5596	  50.7447	   0.0000	
 21.1780	  47.7551	   0.0000	
 34.0914	  52.4971	   0.0000	
 19.1324	  50.9357	   0.0000	
 30.9987	  51.8247	   0.0000	
 21.8903	  51.2807	   0.0000	
 29.9968	  52.4493	   0.0000	
 24.5070	  51.4401	   0.0000	
 26.5047	  53.4671	   0.0000	
 22.4935	  55.3008	   0.0000	
  0.0000	   0.0000	   0.0000	
  0.0000	   0.0000	   0.0000	
 -0.0000	   0.0000	   0.0000	
  0.0000	  -0.0000	   0.0000	
 -0.0000	   0.0000	   0.0000	
  0.0000	   0.0000	   0.0000	
 -0.0000	   0.0000	   0.0000	
 -0.0000	  -0.0000	   0.0000	
 -0.0000	  -0.0000	   0.0000	
 -0.0000	   0.0000	   0.0000	
 -0.0000	  -0.0000	   0.0000	
 -0.0000	  -0.0000	   0.0000	
 -0.0000	   0.0000	   0.0000	
 -0.0000	  -0.0000	   0.0000	