# vtk DataFile Version 3.0 
Results 
ASCII 
DATASET UNSTRUCTURED_GRID 
POINTS 	    1085 float 
  0.0000	   0.6667	  0.0000	 
  0.0000	   1.3333	  0.0000	 
  0.0000	   2.0000	  0.0000	 
  0.0000	   2.6667	  0.0000	 
  0.0000	   3.3333	  0.0000	 
  0.0000	   4.0000	  0.0000	 
  0.0000	   4.6667	  0.0000	 
  0.0000	   5.3333	  0.0000	 
  0.0000	   6.0000	  0.0000	 
  0.0000	   6.6667	  0.0000	 
  0.0000	   7.3333	  0.0000	 
  0.0000	   8.0000	  0.0000	 
  0.0000	   8.6667	  0.0000	 
  0.0000	   9.3333	  0.0000	 
  0.0000	  10.0000	  0.0000	 
  0.0000	  10.6667	  0.0000	 
  0.0000	  11.3333	  0.0000	 
  0.2500	   0.9383	  0.0000	 
  0.2500	   1.5710	  0.0000	 
  0.2500	   2.2037	  0.0000	 
  0.2500	   2.8364	  0.0000	 
  0.2500	   3.4691	  0.0000	 
  0.2500	   4.1019	  0.0000	 
  0.2500	   4.7346	  0.0000	 
  0.2500	   5.3673	  0.0000	 
  0.2500	   6.0000	  0.0000	 
  0.2500	   6.6327	  0.0000	 
  0.2500	   7.2654	  0.0000	 
  0.2500	   7.8981	  0.0000	 
  0.2500	   8.5309	  0.0000	 
  0.2500	   9.1636	  0.0000	 
  0.2500	   9.7963	  0.0000	 
  0.2500	  10.4290	  0.0000	 
  0.2500	  11.0617	  0.0000	 
  0.5000	   1.2099	  0.0000	 
  0.5000	   1.8086	  0.0000	 
  0.5000	   2.4074	  0.0000	 
  0.5000	   3.0062	  0.0000	 
  0.5000	   3.6049	  0.0000	 
  0.5000	   4.2037	  0.0000	 
  0.5000	   4.8025	  0.0000	 
  0.5000	   5.4012	  0.0000	 
  0.5000	   6.0000	  0.0000	 
  0.5000	   6.5988	  0.0000	 
  0.5000	   7.1975	  0.0000	 
  0.5000	   7.7963	  0.0000	 
  0.5000	   8.3951	  0.0000	 
  0.5000	   8.9938	  0.0000	 
  0.5000	   9.5926	  0.0000	 
  0.5000	  10.1914	  0.0000	 
  0.5000	  10.7901	  0.0000	 
  0.7500	   1.4815	  0.0000	 
  0.7500	   2.0463	  0.0000	 
  0.7500	   2.6111	  0.0000	 
  0.7500	   3.1759	  0.0000	 
  0.7500	   3.7407	  0.0000	 
  0.7500	   4.3056	  0.0000	 
  0.7500	   4.8704	  0.0000	 
  0.7500	   5.4352	  0.0000	 
  0.7500	   6.0000	  0.0000	 
  0.7500	   6.5648	  0.0000	 
  0.7500	   7.1296	  0.0000	 
  0.7500	   7.6944	  0.0000	 
  0.7500	   8.2593	  0.0000	 
  0.7500	   8.8241	  0.0000	 
  0.7500	   9.3889	  0.0000	 
  0.7500	   9.9537	  0.0000	 
  0.7500	  10.5185	  0.0000	 
  1.0000	   1.7531	  0.0000	 
  1.0000	   2.2840	  0.0000	 
  1.0000	   2.8148	  0.0000	 
  1.0000	   3.3457	  0.0000	 
  1.0000	   3.8765	  0.0000	 
  1.0000	   4.4074	  0.0000	 
  1.0000	   4.9383	  0.0000	 
  1.0000	   5.4691	  0.0000	 
  1.0000	   6.0000	  0.0000	 
  1.0000	   6.5309	  0.0000	 
  1.0000	   7.0617	  0.0000	 
  1.0000	   7.5926	  0.0000	 
  1.0000	   8.1235	  0.0000	 
  1.0000	   8.6543	  0.0000	 
  1.0000	   9.1852	  0.0000	 
  1.0000	   9.7160	  0.0000	 
  1.0000	  10.2469	  0.0000	 
  1.2500	   2.0247	  0.0000	 
  1.2500	   2.5216	  0.0000	 
  1.2500	   3.0185	  0.0000	 
  1.2500	   3.5154	  0.0000	 
  1.2500	   4.0123	  0.0000	 
  1.2500	   4.5093	  0.0000	 
  1.2500	   5.0062	  0.0000	 
  1.2500	   5.5031	  0.0000	 
  1.2500	   6.0000	  0.0000	 
  1.2500	   6.4969	  0.0000	 
  1.2500	   6.9938	  0.0000	 
  1.2500	   7.4907	  0.0000	 
  1.2500	   7.9877	  0.0000	 
  1.2500	   8.4846	  0.0000	 
  1.2500	   8.9815	  0.0000	 
  1.2500	   9.4784	  0.0000	 
  1.2500	   9.9753	  0.0000	 
  1.5000	   2.2963	  0.0000	 
  1.5000	   2.7593	  0.0000	 
  1.5000	   3.2222	  0.0000	 
  1.5000	   3.6852	  0.0000	 
  1.5000	   4.1481	  0.0000	 
  1.5000	   4.6111	  0.0000	 
  1.5000	   5.0741	  0.0000	 
  1.5000	   5.5370	  0.0000	 
  1.5000	   6.0000	  0.0000	 
  1.5000	   6.4630	  0.0000	 
  1.5000	   6.9259	  0.0000	 
  1.5000	   7.3889	  0.0000	 
  1.5000	   7.8519	  0.0000	 
  1.5000	   8.3148	  0.0000	 
  1.5000	   8.7778	  0.0000	 
  1.5000	   9.2407	  0.0000	 
  1.5000	   9.7037	  0.0000	 
  1.7500	   2.5679	  0.0000	 
  1.7500	   2.9969	  0.0000	 
  1.7500	   3.4259	  0.0000	 
  1.7500	   3.8549	  0.0000	 
  1.7500	   4.2840	  0.0000	 
  1.7500	   4.7130	  0.0000	 
  1.7500	   5.1420	  0.0000	 
  1.7500	   5.5710	  0.0000	 
  1.7500	   6.0000	  0.0000	 
  1.7500	   6.4290	  0.0000	 
  1.7500	   6.8580	  0.0000	 
  1.7500	   7.2870	  0.0000	 
  1.7500	   7.7160	  0.0000	 
  1.7500	   8.1451	  0.0000	 
  1.7500	   8.5741	  0.0000	 
  1.7500	   9.0031	  0.0000	 
  1.7500	   9.4321	  0.0000	 
  2.0000	   2.8395	  0.0000	 
  2.0000	   3.2346	  0.0000	 
  2.0000	   3.6296	  0.0000	 
  2.0000	   4.0247	  0.0000	 
  2.0000	   4.4198	  0.0000	 
  2.0000	   4.8148	  0.0000	 
  2.0000	   5.2099	  0.0000	 
  2.0000	   5.6049	  0.0000	 
  2.0000	   6.0000	  0.0000	 
  2.0000	   6.3951	  0.0000	 
  2.0000	   6.7901	  0.0000	 
  2.0000	   7.1852	  0.0000	 
  2.0000	   7.5802	  0.0000	 
  2.0000	   7.9753	  0.0000	 
  2.0000	   8.3704	  0.0000	 
  2.0000	   8.7654	  0.0000	 
  2.0000	   9.1605	  0.0000	 
  2.2500	   3.1111	  0.0000	 
  2.2500	   3.4722	  0.0000	 
  2.2500	   3.8333	  0.0000	 
  2.2500	   4.1944	  0.0000	 
  2.2500	   4.5556	  0.0000	 
  2.2500	   4.9167	  0.0000	 
  2.2500	   5.2778	  0.0000	 
  2.2500	   5.6389	  0.0000	 
  2.2500	   6.0000	  0.0000	 
  2.2500	   6.3611	  0.0000	 
  2.2500	   6.7222	  0.0000	 
  2.2500	   7.0833	  0.0000	 
  2.2500	   7.4444	  0.0000	 
  2.2500	   7.8056	  0.0000	 
  2.2500	   8.1667	  0.0000	 
  2.2500	   8.5278	  0.0000	 
  2.2500	   8.8889	  0.0000	 
  2.5000	   3.3827	  0.0000	 
  2.5000	   3.7099	  0.0000	 
  2.5000	   4.0370	  0.0000	 
  2.5000	   4.3642	  0.0000	 
  2.5000	   4.6914	  0.0000	 
  2.5000	   5.0185	  0.0000	 
  2.5000	   5.3457	  0.0000	 
  2.5000	   5.6728	  0.0000	 
  2.5000	   6.0000	  0.0000	 
  2.5000	   6.3272	  0.0000	 
  2.5000	   6.6543	  0.0000	 
  2.5000	   6.9815	  0.0000	 
  2.5000	   7.3086	  0.0000	 
  2.5000	   7.6358	  0.0000	 
  2.5000	   7.9630	  0.0000	 
  2.5000	   8.2901	  0.0000	 
  2.5000	   8.6173	  0.0000	 
  2.7500	   3.6543	  0.0000	 
  2.7500	   3.9475	  0.0000	 
  2.7500	   4.2407	  0.0000	 
  2.7500	   4.5340	  0.0000	 
  2.7500	   4.8272	  0.0000	 
  2.7500	   5.1204	  0.0000	 
  2.7500	   5.4136	  0.0000	 
  2.7500	   5.7068	  0.0000	 
  2.7500	   6.0000	  0.0000	 
  2.7500	   6.2932	  0.0000	 
  2.7500	   6.5864	  0.0000	 
  2.7500	   6.8796	  0.0000	 
  2.7500	   7.1728	  0.0000	 
  2.7500	   7.4660	  0.0000	 
  2.7500	   7.7593	  0.0000	 
  2.7500	   8.0525	  0.0000	 
  2.7500	   8.3457	  0.0000	 
  3.0000	   3.9259	  0.0000	 
  3.0000	   4.1852	  0.0000	 
  3.0000	   4.4444	  0.0000	 
  3.0000	   4.7037	  0.0000	 
  3.0000	   4.9630	  0.0000	 
  3.0000	   5.2222	  0.0000	 
  3.0000	   5.4815	  0.0000	 
  3.0000	   5.7407	  0.0000	 
  3.0000	   6.0000	  0.0000	 
  3.0000	   6.2593	  0.0000	 
  3.0000	   6.5185	  0.0000	 
  3.0000	   6.7778	  0.0000	 
  3.0000	   7.0370	  0.0000	 
  3.0000	   7.2963	  0.0000	 
  3.0000	   7.5556	  0.0000	 
  3.0000	   7.8148	  0.0000	 
  3.0000	   8.0741	  0.0000	 
  3.2500	   4.1975	  0.0000	 
  3.2500	   4.4228	  0.0000	 
  3.2500	   4.6481	  0.0000	 
  3.2500	   4.8735	  0.0000	 
  3.2500	   5.0988	  0.0000	 
  3.2500	   5.3241	  0.0000	 
  3.2500	   5.5494	  0.0000	 
  3.2500	   5.7747	  0.0000	 
  3.2500	   6.0000	  0.0000	 
  3.2500	   6.2253	  0.0000	 
  3.2500	   6.4506	  0.0000	 
  3.2500	   6.6759	  0.0000	 
  3.2500	   6.9012	  0.0000	 
  3.2500	   7.1265	  0.0000	 
  3.2500	   7.3519	  0.0000	 
  3.2500	   7.5772	  0.0000	 
  3.2500	   7.8025	  0.0000	 
  3.5000	   4.4691	  0.0000	 
  3.5000	   4.6605	  0.0000	 
  3.5000	   4.8519	  0.0000	 
  3.5000	   5.0432	  0.0000	 
  3.5000	   5.2346	  0.0000	 
  3.5000	   5.4259	  0.0000	 
  3.5000	   5.6173	  0.0000	 
  3.5000	   5.8086	  0.0000	 
  3.5000	   6.0000	  0.0000	 
  3.5000	   6.1914	  0.0000	 
  3.5000	   6.3827	  0.0000	 
  3.5000	   6.5741	  0.0000	 
  3.5000	   6.7654	  0.0000	 
  3.5000	   6.9568	  0.0000	 
  3.5000	   7.1481	  0.0000	 
  3.5000	   7.3395	  0.0000	 
  3.5000	   7.5309	  0.0000	 
  3.7500	   4.7407	  0.0000	 
  3.7500	   4.8981	  0.0000	 
  3.7500	   5.0556	  0.0000	 
  3.7500	   5.2130	  0.0000	 
  3.7500	   5.3704	  0.0000	 
  3.7500	   5.5278	  0.0000	 
  3.7500	   5.6852	  0.0000	 
  3.7500	   5.8426	  0.0000	 
  3.7500	   6.0000	  0.0000	 
  3.7500	   6.1574	  0.0000	 
  3.7500	   6.3148	  0.0000	 
  3.7500	   6.4722	  0.0000	 
  3.7500	   6.6296	  0.0000	 
  3.7500	   6.7870	  0.0000	 
  3.7500	   6.9444	  0.0000	 
  3.7500	   7.1019	  0.0000	 
  3.7500	   7.2593	  0.0000	 
  4.0000	   5.0123	  0.0000	 
  4.0000	   5.1358	  0.0000	 
  4.0000	   5.2593	  0.0000	 
  4.0000	   5.3827	  0.0000	 
  4.0000	   5.5062	  0.0000	 
  4.0000	   5.6296	  0.0000	 
  4.0000	   5.7531	  0.0000	 
  4.0000	   5.8765	  0.0000	 
  4.0000	   6.0000	  0.0000	 
  4.0000	   6.1235	  0.0000	 
  4.0000	   6.2469	  0.0000	 
  4.0000	   6.3704	  0.0000	 
  4.0000	   6.4938	  0.0000	 
  4.0000	   6.6173	  0.0000	 
  4.0000	   6.7407	  0.0000	 
  4.0000	   6.8642	  0.0000	 
  4.0000	   6.9877	  0.0000	 
  4.2500	   5.2840	  0.0000	 
  4.2500	   5.3735	  0.0000	 
  4.2500	   5.4630	  0.0000	 
  4.2500	   5.5525	  0.0000	 
  4.2500	   5.6420	  0.0000	 
  4.2500	   5.7315	  0.0000	 
  4.2500	   5.8210	  0.0000	 
  4.2500	   5.9105	  0.0000	 
  4.2500	   6.0000	  0.0000	 
  4.2500	   6.0895	  0.0000	 
  4.2500	   6.1790	  0.0000	 
  4.2500	   6.2685	  0.0000	 
  4.2500	   6.3580	  0.0000	 
  4.2500	   6.4475	  0.0000	 
  4.2500	   6.5370	  0.0000	 
  4.2500	   6.6265	  0.0000	 
  4.2500	   6.7160	  0.0000	 
  4.5000	   5.5556	  0.0000	 
  4.5000	   5.6111	  0.0000	 
  4.5000	   5.6667	  0.0000	 
  4.5000	   5.7222	  0.0000	 
  4.5000	   5.7778	  0.0000	 
  4.5000	   5.8333	  0.0000	 
  4.5000	   5.8889	  0.0000	 
  4.5000	   5.9444	  0.0000	 
  4.5000	   6.0000	  0.0000	 
  4.5000	   6.0556	  0.0000	 
  4.5000	   6.1111	  0.0000	 
  4.5000	   6.1667	  0.0000	 
  4.5000	   6.2222	  0.0000	 
  4.5000	   6.2778	  0.0000	 
  4.5000	   6.3333	  0.0000	 
  4.5000	   6.3889	  0.0000	 
  4.5000	   6.4444	  0.0000	 
  0.0000	   0.0000	  0.0000	 
  0.0000	  12.0000	  0.0000	 
  0.2500	   0.3056	  0.0000	 
  0.2500	  11.6944	  0.0000	 
  0.5000	   0.6111	  0.0000	 
  0.5000	  11.3889	  0.0000	 
  0.7500	   0.9167	  0.0000	 
[...]
POINT_DATA 	    1085 
VECTORS U float 
 51.3000	  -0.0000	   0.0000	
 51.3000	   0.0000	   0.0000	
 51.3000	  -0.0000	   0.0000	
 51.3000	   0.0000	   0.0000	
 51.3000	   0.0000	   0.0000	
 51.3000	   0.0000	   0.0000	
 51.3000	   0.0000	   0.0000	
 51.3000	  -0.0000	   0.0000	
 51.3000	   0.0000	   0.0000	
 51.3000	  -0.0000	   0.0000	
 51.3000	   0.0000	   0.0000	
 51.3000	  -0.0000	   0.0000	
 51.3000	  -0.0000	   0.0000	
 51.3000	   0.0000	   0.0000	
 51.3000	  -0.0000	   0.0000	
 51.3000	   0.0000	   0.0000	
 51.3000	  -0.0000	   0.0000	
 25.6326	  12.5351	   0.0000	
 54.2694	  -0.0480	   0.0000	
 51.0700	   8.8426	   0.0000	
 51.0771	   0.4461	   0.0000	
 50.8954	   5.3219	   0.0000	
 51.1446	   6.2917	   0.0000	
 51.4718	   5.5165	   0.0000	
 51.3199	   5.4366	   0.0000	
 51.3972	   5.5269	   0.0000	
 51.4049	   4.7360	   0.0000	
 51.3185	   4.0305	   0.0000	
 51.5789	   3.9446	   0.0000	
 51.4757	   1.9626	   0.0000	
 51.3677	   1.3776	   0.0000	
 51.3663	   0.7758	   0.0000	
 51.3051	   0.8625	   0.0000	
 51.4001	   0.3208	   0.0000	
 46.4279	 -21.2340	   0.0000	
 47.0993	  16.6125	   0.0000	
 56.5831	  -4.4345	   0.0000	
 48.5664	   5.9336	   0.0000	
 50.9213	  -0.8163	   0.0000	
 52.0462	  -3.8064	   0.0000	
 51.3940	  -3.6786	   0.0000	
 51.3298	  -3.6766	   0.0000	
 50.8844	  -2.7282	   0.0000	
 51.4263	  -0.9005	   0.0000	
 51.4027	  -0.2700	   0.0000	
 51.2165	   0.2238	   0.0000	
 52.0663	   1.8085	   0.0000	
 51.8296	   2.3275	   0.0000	
 51.6289	   1.5964	   0.0000	
 51.2983	   1.0642	   0.0000	
 51.6003	   0.7431	   0.0000	
 22.1938	  -4.4640	   0.0000	
 69.6546	  -7.2745	   0.0000	
 44.3456	   2.1217	   0.0000	
 54.6771	  -5.0596	   0.0000	
 53.3358	  -7.4214	   0.0000	
 51.6586	  -7.7710	   0.0000	
 51.2417	  -6.8153	   0.0000	
 50.7925	  -5.4871	   0.0000	
 50.4534	  -4.4100	   0.0000	
 50.7165	  -3.4710	   0.0000	
 51.1029	  -2.2238	   0.0000	
 50.9189	  -1.3338	   0.0000	
 50.9459	  -0.2898	   0.0000	
 51.1570	   1.2029	   0.0000	
 51.7956	   1.5253	   0.0000	
 51.7624	   1.5228	   0.0000	
 51.4927	   0.2911	   0.0000	
 45.6134	 -31.0092	   0.0000	
 53.3066	  -1.8609	   0.0000	
 51.7596	 -12.6283	   0.0000	
 53.3934	  -9.3303	   0.0000	
 52.8247	  -7.3579	   0.0000	
 51.0995	  -7.3469	   0.0000	
 50.6232	  -5.8908	   0.0000	
 50.3488	  -5.2346	   0.0000	
 50.0018	  -4.1979	   0.0000	
 50.2599	  -3.1783	   0.0000	
 50.5715	  -2.2553	   0.0000	
 50.5836	  -1.2976	   0.0000	
 50.5030	  -0.5551	   0.0000	
 50.9405	  -0.2042	   0.0000	
 51.6319	   0.0819	   0.0000	
 51.5127	   0.7806	   0.0000	
 52.4052	   0.1257	   0.0000	
 41.3660	 -26.1095	   0.0000	
 54.5646	 -17.4157	   0.0000	
 50.0660	 -17.2751	   0.0000	
 51.7854	 -11.2248	   0.0000	
 52.3161	  -9.4921	   0.0000	
 50.0304	  -7.9134	   0.0000	
 50.2138	  -6.4200	   0.0000	
 49.7337	  -5.3317	   0.0000	
 49.5299	  -4.1999	   0.0000	
 49.7263	  -3.2393	   0.0000	
 50.1253	  -2.2252	   0.0000	
 50.2255	  -1.5102	   0.0000	
 50.2139	  -0.9452	   0.0000	
 50.7959	  -0.9487	   0.0000	
 51.4001	  -1.4171	   0.0000	
 51.1301	  -0.7772	   0.0000	
 52.3672	  -1.1470	   0.0000	
 45.2727	 -19.2057	   0.0000	
 52.4825	 -13.0114	   0.0000	
 47.6840	 -12.1630	   0.0000	
 51.4336	 -10.0652	   0.0000	
 51.0567	  -8.2898	   0.0000	
 49.2002	  -7.8180	   0.0000	
 49.7211	  -6.4891	   0.0000	
 49.0612	  -5.5459	   0.0000	
 48.9483	  -4.2758	   0.0000	
 49.1837	  -3.1591	   0.0000	
 49.5696	  -2.1845	   0.0000	
 49.8759	  -1.3108	   0.0000	
 49.9395	  -0.7070	   0.0000	
 50.5732	  -0.5681	   0.0000	
 51.4537	  -0.6838	   0.0000	
 50.8828	  -0.1710	   0.0000	
 52.0817	  -1.0405	   0.0000	
 48.6130	 -12.0677	   0.0000	
 49.4368	  -9.6913	   0.0000	
 48.6118	 -11.3246	   0.0000	
 50.4597	  -8.9166	   0.0000	
 50.3625	  -7.9335	   0.0000	
 48.4599	  -7.5912	   0.0000	
 49.2489	  -6.2788	   0.0000	
 48.3026	  -5.4868	   0.0000	
 48.3582	  -4.2470	   0.0000	
 48.5194	  -3.1561	   0.0000	
 48.9820	  -2.0912	   0.0000	
 49.3963	  -1.2232	   0.0000	
 49.6136	  -0.5883	   0.0000	
 50.2781	  -0.3853	   0.0000	
 51.0697	  -0.4206	   0.0000	
 50.8893	   0.5679	   0.0000	
 51.9215	  -0.7456	   0.0000	
 49.4952	  -7.8907	   0.0000	
 49.5591	 -11.5664	   0.0000	
 48.2063	 -10.5247	   0.0000	
 49.9307	  -9.0444	   0.0000	
 49.6420	  -8.0967	   0.0000	
 47.6864	  -7.8913	   0.0000	
 48.7591	  -6.4418	   0.0000	
 47.4147	  -5.5028	   0.0000	
 47.6775	  -4.1190	   0.0000	
 47.8083	  -3.0058	   0.0000	
 48.3226	  -1.9394	   0.0000	
 48.8144	  -1.0837	   0.0000	
 49.2725	  -0.4991	   0.0000	
 49.8955	  -0.3517	   0.0000	
 50.7430	  -0.3096	   0.0000	
 50.3662	   0.4998	   0.0000	
 52.1747	  -0.5641	   0.0000	
 54.1049	  -5.3232	   0.0000	
 47.4718	 -11.1210	   0.0000	
 48.3421	  -9.5723	   0.0000	
 49.3027	  -8.5161	   0.0000	
 49.2007	  -8.0550	   0.0000	
 46.8488	  -8.3208	   0.0000	
 48.1066	  -6.5428	   0.0000	
 46.4438	  -5.9170	   0.0000	
 46.7582	  -4.3405	   0.0000	
 47.0054	  -2.8951	   0.0000	
 47.5375	  -1.7662	   0.0000	
 48.1809	  -0.7221	   0.0000	
 48.8128	  -0.2979	   0.0000	
 49.5335	   0.0207	   0.0000	
 50.2282	   0.0991	   0.0000	
 50.1358	   0.9074	   0.0000	
 51.6625	  -0.4447	   0.0000	
 54.1415	  -4.3148	   0.0000	
 46.5613	 -11.3556	   0.0000	
 48.1979	  -9.5153	   0.0000	
 48.7710	  -8.5713	   0.0000	
 48.8482	  -7.6616	   0.0000	
 45.5632	  -7.9201	   0.0000	
 47.7326	  -6.0620	   0.0000	
 45.3492	  -5.5180	   0.0000	
 45.7591	  -3.9666	   0.0000	
 45.9743	  -2.6291	   0.0000	
 46.7018	  -1.4833	   0.0000	
 47.2688	  -0.5029	   0.0000	
 48.4499	  -0.0637	   0.0000	
 48.9164	   0.2096	   0.0000	
 49.7856	   0.5080	   0.0000	
 49.7444	   0.8133	   0.0000	
 51.5450	  -0.4932	   0.0000	
 53.4581	  -4.2767	   0.0000	
 47.0557	 -10.4076	   0.0000	
 48.3378	 -11.0443	   0.0000	
 47.7905	 -10.6230	   0.0000	
 48.1797	  -8.8561	   0.0000	
 44.2829	 -10.1591	   0.0000	
 47.0541	  -7.3250	   0.0000	
 43.8457	  -6.3315	   0.0000	
 44.2134	  -4.4098	   0.0000	
 44.7313	  -2.4106	   0.0000	
 45.6481	  -0.9012	   0.0000	
 46.2929	   0.3863	   0.0000	
 47.7864	   0.5429	   0.0000	
 48.3731	   1.2667	   0.0000	
 49.0538	   1.3355	   0.0000	
 49.8683	   1.0669	   0.0000	
 50.9789	  -0.1281	   0.0000	
 50.3717	  -5.6122	   0.0000	
 49.8792	  -5.6551	   0.0000	
 48.3915	  -8.9620	   0.0000	
 45.9334	  -9.3283	   0.0000	
 48.8656	  -7.7933	   0.0000	
 41.8427	  -9.9939	   0.0000	
 45.5337	  -5.1399	   0.0000	
 42.5144	  -5.4172	   0.0000	
 42.9179	  -3.9209	   0.0000	
 43.0626	  -2.5370	   0.0000	
 43.9806	  -1.1119	   0.0000	
 44.7251	   0.9975	   0.0000	
 47.3204	   1.1649	   0.0000	
 47.2771	   1.9692	   0.0000	
 48.9336	   1.4976	   0.0000	
 49.8780	   0.0046	   0.0000	
 50.5939	   0.1145	   0.0000	
 46.2443	 -12.4942	   0.0000	
 52.5287	  -8.3562	   0.0000	
 47.6807	 -11.4276	   0.0000	
 45.6147	 -14.2073	   0.0000	
 49.0440	  -9.8558	   0.0000	
 36.8676	 -13.3280	   0.0000	
 45.7448	  -9.2653	   0.0000	
 40.8526	  -8.3774	   0.0000	
 38.6502	  -4.2555	   0.0000	
 41.3746	  -0.4200	   0.0000	
 42.4447	   1.3524	   0.0000	
 41.9600	   3.0382	   0.0000	
 46.2632	   3.1018	   0.0000	
 46.5387	   4.5721	   0.0000	
 48.8929	   2.4632	   0.0000	
 50.9432	   0.6706	   0.0000	
 47.4711	   3.1640	   0.0000	
 52.8215	  -9.0311	   0.0000	
 49.2299	  -9.3359	   0.0000	
 49.8026	 -10.5796	   0.0000	
 39.7228	 -12.6841	   0.0000	
 48.8885	  -3.6235	   0.0000	
 35.7369	 -15.4022	   0.0000	
 42.2715	  -7.0075	   0.0000	
 35.3443	  -3.0120	   0.0000	
 38.6396	  -3.6983	   0.0000	
 36.6607	  -3.0973	   0.0000	
 39.5373	   0.2452	   0.0000	
 40.3741	   3.1302	   0.0000	
 44.3307	   0.9609	   0.0000	
 43.2398	   4.7141	   0.0000	
 49.6464	   2.8878	   0.0000	
 50.4781	   1.9899	   0.0000	
 50.9988	   1.5358	   0.0000	
 50.0174	 -17.3091	   0.0000	
 50.5335	 -15.8035	   0.0000	
 46.1905	 -22.2974	   0.0000	
 28.6296	 -27.3073	   0.0000	
 61.1302	 -13.1071	   0.0000	
 23.5255	 -21.6538	   0.0000	
 33.3600	 -10.6261	   0.0000	
 37.7503	 -11.6103	   0.0000	
 27.7369	  -3.7140	   0.0000	
 35.3429	   2.7243	   0.0000	
 33.4734	   5.2920	   0.0000	
 34.7626	   9.4014	   0.0000	
 45.9491	   8.1178	   0.0000	
 36.9316	  13.6330	   0.0000	
 47.5680	  10.1824	   0.0000	
 49.7858	   6.3268	   0.0000	
 49.5039	   8.4918	   0.0000	
 59.9757	 -13.8035	   0.0000	
 47.9588	 -21.7415	   0.0000	
  6.8535	 -26.1239	   0.0000	
 54.8359	 -18.6312	   0.0000	
 42.1211	 -10.4685	   0.0000	
 10.1746	 -17.9031	   0.0000	
 37.6048	 -17.0274	   0.0000	
 19.6801	  -5.1507	   0.0000	
 24.2733	  -4.6218	   0.0000	
 23.2354	  -2.0112	   0.0000	
 27.9659	   5.2564	   0.0000	
 26.4803	   9.3282	   0.0000	
 38.3946	   8.0891	   0.0000	
 38.4794	  13.4834	   0.0000	
 29.1075	  18.1359	   0.0000	
 50.4951	  12.2839	   0.0000	
 56.5629	   7.2059	   0.0000	
 17.5376	 -58.3651	   0.0000	
 42.4415	 -49.2779	   0.0000	
 16.8014	 -45.9517	   0.0000	
 50.8377	 -39.9794	   0.0000	
-20.5620	 -33.5321	   0.0000	
 41.6002	 -24.1561	   0.0000	
-11.0609	 -18.6104	   0.0000	
 21.8358	 -12.4606	   0.0000	
  1.7986	  -4.6863	   0.0000	
 15.8636	   2.6223	   0.0000	
  6.8369	   8.7675	   0.0000	
 17.3190	  15.1754	   0.0000	
  9.0431	  21.7603	   0.0000	
 37.3756	  28.8515	   0.0000	
 24.7614	  34.7250	   0.0000	
 32.0296	  38.9999	   0.0000	
 31.9471	  41.9951	   0.0000	
 -0.0000	   0.0000	   0.0000	
  0.0000	   0.0000	   0.0000	
  0.0000	   0.0000	   0.0000	
 -0.0000	   0.0000	   0.0000	
 -0.0000	  -0.0000	   0.0000	
 -0.0000	   0.0000	   0.0000	
 -0.0000	   0.0000	   0.0000	
 -0.0000	  -0.0000	   0.0000	
  0.0000	   0.0000	   0.0000	
 -0.0000	   0.0000	   0.0000	
 -0.0000	  -0.0000	   0.0000	
 -0.0000	  -0.0000	   0.0000	
  0.0000	  -0.0000	   0.0000	
  0.0000	   0.0000	   0.0000	
  0.0000	   0.0000	   0.0000	
  0.0000	   0.0000	   0.0000	
  0.0000	  -0.0000	   0.0000	
 51.3000	  -0.0000	   0.0000	
 51.3000	  -0.0000	   0.0000	
 20.7587	  -2.9594	   0.0000	
 51.4071	   0.3164	   0.0000	
-35.1456	   3.8769	   0.0000	
 51.4709	   0.6179	   0.0000	
 49.5488	 -33.9001	   0.0000	
 51.7224	   0.9729	   0.0000	
 11.6497	 -13.8321	   0.0000	
 50.9229	   0.7939	   0.0000	
 46.7238	 -33.3031	   0.0000	
 50.7077	   0.8443	   0.0000	
 38.2569	 -23.0924	   0.0000	
 50.6722	   0.9441	   0.0000	
 38.5810	 -20.5575	   0.0000	
 50.6027	   1.0662	   0.0000	
 39.9108	 -19.3875	   0.0000	
 50.3285	   1.1615	   0.0000	
 38.8158	 -17.0866	   0.0000	
 50.6330	   1.7308	   0.0000	
 43.0392	 -17.5928	   0.0000	
 49.7972	   1.7818	   0.0000	
 43.3182	 -16.4988	   0.0000	
 49.5393	   2.5495	   0.0000	
 43.4656	 -15.7188	   0.0000	
 48.2747	   3.0203	   0.0000	
 45.5816	 -16.4948	   0.0000	
 49.1356	   5.1640	   0.0000	
 42.4415	 -14.6060	   0.0000	
 44.2918	   4.7603	   0.0000	
 50.0741	 -20.0275	   0.0000	
 50.0872	  11.9155	   0.0000	
 44.8779	 -18.8141	   0.0000	
 42.6243	  13.2557	   0.0000	
 72.8487	 -29.6734	   0.0000	
 69.5058	  24.2073	   0.0000	
  0.0000	   0.0000	   0.0000	
 -0.0000	   0.0000	   0.0000	
 52.0210	  -0.0000	   0.0000	
 53.8285	  -0.0000	   0.0000	
 37.0868	   2.8068	   0.0000	
 52.8621	  -0.2216	   0.0000	
 41.5817	   2.7985	   0.0000	
 52.2385	  -0.3854	   0.0000	
 44.1347	   1.7198	   0.0000	
 52.1773	  -0.3475	   0.0000	
 46.0371	   0.7764	   0.0000	
 52.4270	  -0.2051	   0.0000	
 47.4339	   0.1786	   0.0000	
 52.5396	  -0.1156	   0.0000	
 48.6056	  -0.5924	   0.0000	
 52.2803	  -0.1902	   0.0000	
 46.8440	  -0.1458	   0.0000	
 52.8284	   0.0516	   0.0000	
 49.9671	  -1.3867	   0.0000	
 53.8108	   0.4607	   0.0000	
 50.6082	  -1.4931	   0.0000	
 54.0455	   0.8401	   0.0000	
 51.5537	  -1.8423	   0.0000	
 54.3387	   1.5428	   0.0000	
 53.8578	  -2.5326	   0.0000	
 56.3632	   2.0655	   0.0000	
 53.5124	  -2.6375	   0.0000	
 56.1148	   2.2474	   0.0000	
 55.4191	  -2.9121	   0.0000	
 54.8278	   1.3507	   0.0000	
 59.8427	  -3.5331	   0.0000	
 63.6744	   4.2399	   0.0000	
 62.2906	  -3.7459	   0.0000	
 56.8695	   2.2905	   0.0000	
 75.5022	  -5.4090	   0.0000	
 77.4609	   6.9390	   0.0000	
 38.4413	   1.2057	   0.0000	
 39.9701	   2.1176	   0.0000	
 -0.0000	   0.0000	   0.0000	
 -0.0000	  -0.0000	   0.0000	
 46.3216	  -0.0000	   0.0000	
 51.8040	   0.0000	   0.0000	
 47.5359	  -0.9199	   0.0000	
 51.6735	  -0.1899	   0.0000	
 47.1457	  -1.2099	   0.0000	
 51.6350	  -0.3957	   0.0000	
 47.7767	  -1.3921	   0.0000	
 51.8475	  -0.6380	   0.0000	
 48.7857	  -1.5582	   0.0000	
 51.7766	  -0.9170	   0.0000	
 47.9106	  -1.4226	   0.0000	
 51.9712	  -1.2186	   0.0000	
 48.0750	  -1.2094	   0.0000	
 51.7110	  -1.7252	   0.0000	
 48.8843	  -0.9585	   0.0000	
 52.2856	  -2.1782	   0.0000	
 49.8137	  -0.5672	   0.0000	
 53.1521	  -2.7655	   0.0000	
 49.7279	   0.0943	   0.0000	
 52.3860	  -3.7357	   0.0000	
 51.3425	   1.0220	   0.0000	
 54.1015	  -4.6377	   0.0000	
 52.0332	   2.3727	   0.0000	
 54.9328	  -5.8139	   0.0000	
 50.4996	   4.0510	   0.0000	
 52.0188	  -7.6032	   0.0000	
 52.5362	   6.6571	   0.0000	
 58.4865	 -10.0414	   0.0000	
 52.9349	   9.8011	   0.0000	
 55.3122	 -13.0290	   0.0000	
 69.6673	  14.3260	   0.0000	
 70.1735	 -16.0828	   0.0000	
 58.7275	  16.4283	   0.0000	
 62.3035	 -17.3708	   0.0000	
 34.0049	  15.3188	   0.0000	
 36.4792	 -16.2012	   0.0000	
 20.1514	  10.9277	   0.0000	
 19.1028	 -11.7959	   0.0000	
 47.7160	   0.0000	   0.0000	
 49.6249	   0.0000	   0.0000	
 47.1855	  -0.1409	   0.0000	
 49.7217	  -0.2159	   0.0000	
 46.6805	  -0.0929	   0.0000	
 49.8562	  -0.4201	   0.0000	
 46.7522	  -0.0070	   0.0000	
 49.7268	  -0.5702	   0.0000	
 46.9898	   0.2058	   0.0000	
 49.8996	  -0.7937	   0.0000	
 46.9561	   0.3416	   0.0000	
 49.6089	  -0.9196	   0.0000	
 47.1089	   0.3825	   0.0000	
 49.8205	  -1.1493	   0.0000	
 47.3009	   0.4364	   0.0000	
 49.6570	  -1.3153	   0.0000	
 46.7153	   0.3934	   0.0000	
 49.1327	  -1.4340	   0.0000	
 47.6874	   0.6127	   0.0000	
 50.0296	  -1.7953	   0.0000	
 46.7623	   0.5181	   0.0000	
 49.0748	  -1.8448	   0.0000	
 45.6420	   0.5832	   0.0000	
 47.8818	  -2.2378	   0.0000	
 47.6877	   0.8780	   0.0000	
 49.8210	  -2.5884	   0.0000	
 45.4398	   0.7444	   0.0000	
 47.7561	  -2.4962	   0.0000	
 43.8878	   1.0227	   0.0000	
 47.1262	  -3.8089	   0.0000	
 43.9943	   1.3286	   0.0000	
 46.8843	  -5.0363	   0.0000	
 49.1507	   6.4271	   0.0000	
 51.6011	 -10.2538	   0.0000	
 43.9986	   6.7942	   0.0000	
 48.2518	 -12.3955	   0.0000	
 34.2790	   3.8243	   0.0000	
 34.2580	  -9.3030	   0.0000	
 46.9726	  -0.0000	   0.0000	
 48.2828	   0.0000	   0.0000	
 47.2577	   0.1360	   0.0000	
 48.4386	  -0.1552	   0.0000	
 47.3396	   0.2443	   0.0000	
 48.4866	  -0.2890	   0.0000	
 47.2935	   0.2807	   0.0000	
 48.4945	  -0.4136	   0.0000	
 47.3944	   0.3585	   0.0000	
 48.5154	  -0.5702	   0.0000	
 47.4173	   0.2812	   0.0000	
 48.5371	  -0.7521	   0.0000	
 47.2477	   0.1711	   0.0000	
 48.6083	  -0.9665	   0.0000	
 47.2088	   0.1468	   0.0000	
 48.4073	  -1.0944	   0.0000	
 47.4016	   0.2405	   0.0000	
 48.5431	  -1.3396	   0.0000	
 47.0615	   0.1986	   0.0000	
 48.3795	  -1.5151	   0.0000	
 47.0605	   0.2163	   0.0000	
 48.3782	  -1.7284	   0.0000	
 47.0562	   0.4131	   0.0000	
 48.2414	  -2.0253	   0.0000	
 46.7249	   0.3251	   0.0000	
 47.9777	  -2.1441	   0.0000	
 47.1066	   0.5774	   0.0000	
 48.2632	  -2.3651	   0.0000	
 46.3969	   0.5275	   0.0000	
 47.5018	  -2.5297	   0.0000	
 45.5968	   0.0946	   0.0000	
 46.6221	  -2.2634	   0.0000	
 46.2076	  -0.1444	   0.0000	
 46.4062	  -2.0433	   0.0000	
 43.3685	  -1.5777	   0.0000	
 44.8176	  -1.6818	   0.0000	
 44.5342	   1.3323	   0.0000	
 43.2834	  -3.9432	   0.0000	
 47.1844	  -0.0000	   0.0000	
 47.8202	   0.0000	   0.0000	
 47.1551	  -0.0398	   0.0000	
 47.8487	  -0.0431	   0.0000	
 47.1763	  -0.0727	   0.0000	
 47.8758	  -0.0856	   0.0000	
 47.2113	  -0.1038	   0.0000	
 47.8875	  -0.1257	   0.0000	
 47.1702	  -0.1770	   0.0000	
 47.9400	  -0.1839	   0.0000	
 47.0953	  -0.2023	   0.0000	
 47.9280	  -0.2380	   0.0000	
 47.1296	  -0.1438	   0.0000	
 47.9319	  -0.3169	   0.0000	
 47.1165	  -0.1235	   0.0000	
 47.9367	  -0.3994	   0.0000	
 47.0819	  -0.0466	   0.0000	
 47.9248	  -0.4867	   0.0000	
 46.9107	  -0.0751	   0.0000	
 47.8025	  -0.5314	   0.0000	
 46.9888	  -0.0030	   0.0000	
 47.8884	  -0.7177	   0.0000	
 46.7690	  -0.0561	   0.0000	
 47.7313	  -0.8325	   0.0000	
 46.8593	   0.0269	   0.0000	
 47.7150	  -1.0252	   0.0000	
 46.6057	  -0.0852	   0.0000	
 47.4475	  -1.1274	   0.0000	
 46.5328	   0.0064	   0.0000	
 47.3499	  -1.3660	   0.0000	
 46.2878	  -0.1396	   0.0000	
 46.9035	  -1.4461	   0.0000	
 46.1253	  -0.0866	   0.0000	
 46.7891	  -1.7917	   0.0000	
 46.7885	  -0.0493	   0.0000	
 46.8847	  -1.8362	   0.0000	
 44.6587	  -1.0048	   0.0000	
 45.2462	  -1.0676	   0.0000	
  0.0000	   0.0000	   0.0000	
  0.0000	   0.0000	   0.0000	
 -0.0000	   0.0000	   0.0000	
 -0.0000	  -0.0000	   0.0000	
 -0.0000	   0.0000	   0.0000	
 -0.0000	   0.0000	   0.0000	
  0.0000	  -0.0000	   0.0000	
  0.0000	  -0.0000	   0.0000	
  0.0000	  -0.0000	   0.0000	
  0.0000	  -0.0000	   0.0000	
  0.0000	  -0.0000	   0.0000	
 -0.0000	  -0.0000	   0.0000	
  0.0000	   0.0000	   0.0000	
  0.0000	  -0.0000	   0.0000	
  0.0000	  -0.0000	   0.0000	
  0.0000	   0.0000	   0.0000	
  0.0000	   0.0000	   0.0000	
  0.0000	   0.0000	   0.0000	
 29.4322	  11.0518	   0.0000	
 25.7746	 -11.7258	   0.0000	
 28.9444	  10.2230	   0.0000	
 31.2369	 -11.2329	   0.0000	
 25.1859	   8.9722	   0.0000	
 28.3782	  -9.9171	   0.0000	
 22.6953	   7.6310	   0.0000	
 25.0455	  -8.2421	   0.0000	
 20.5102	   5.9924	   0.0000	
 21.4136	  -6.4643	   0.0000	
 18.9103	   4.4644	   0.0000	
 19.8146	  -4.7430	   0.0000	
 17.5341	   2.8331	   0.0000	
 18.4897	  -2.9288	   0.0000	
  0.0000	   0.0000	   0.0000	
  0.0000	   0.0000	   0.0000	
 37.1635	   2.7170	   0.0000	
 33.3911	  -8.0654	   0.0000	
 36.8553	   1.8547	   0.0000	
 34.0879	  -7.0484	   0.0000	
 37.6498	   1.0390	   0.0000	
 35.8250	  -6.4806	   0.0000	
 38.0455	   0.2765	   0.0000	
 36.5495	  -5.9071	   0.0000	
 38.6110	  -0.5047	   0.0000	
 37.5959	  -5.3257	   0.0000	
 38.7323	  -1.3081	   0.0000	
 38.1361	  -4.7001	   0.0000	
 38.8867	  -2.1566	   0.0000	
 38.4475	  -4.0555	   0.0000	
  0.0000	   0.0000	   0.0000	
  0.0000	   0.0000	   0.0000	
 47.4476	   0.0128	   0.0000	
 45.8287	  -2.5513	   0.0000	
 47.8298	  -0.1352	   0.0000	
 48.1955	  -2.2600	   0.0000	
 47.3277	  -0.2602	   0.0000	
 48.1214	  -2.0664	   0.0000	
 47.1996	  -0.4177	   0.0000	
 47.8620	  -1.7740	   0.0000	
 47.0353	  -0.5264	   0.0000	
 47.6562	  -1.6101	   0.0000	
 46.9373	  -0.6433	   0.0000	
 47.3215	  -1.3737	   0.0000	
 46.8673	  -0.7691	   0.0000	
 47.0954	  -1.2430	   0.0000	
  0.0000	   0.0000	   0.0000	
  0.0000	   0.0000	   0.0000	
 43.7752	  -1.6751	   0.0000	
 44.3249	  -0.3874	   0.0000	
 45.3051	  -1.6229	   0.0000	
 45.6170	  -0.4223	   0.0000	
 45.2396	  -1.5196	   0.0000	
 45.6158	  -0.5900	   0.0000	
 44.9377	  -1.4459	   0.0000	
 45.0560	  -0.7014	   0.0000	
 45.4401	  -1.3865	   0.0000	
 45.4861	  -0.8700	   0.0000	
 44.9093	  -1.3275	   0.0000	
 44.9627	  -0.9932	   0.0000	
 45.5737	  -1.3263	   0.0000	
 45.5280	  -1.0797	   0.0000	
 -0.0000	  -0.0000	   0.0000	
  0.0000	  -0.0000	   0.0000	
 -0.0000	   0.0000	   0.0000	
 18.4102	   1.2316	   0.0000	
 18.0135	   0.0207	   0.0000	
 17.4774	  -1.2270	   0.0000	
 39.0999	  -2.8943	   0.0000	
 38.8515	  -3.0722	   0.0000	
 38.6126	  -3.3855	   0.0000	
 46.5219	  -0.9521	   0.0000	
 47.0463	  -0.9849	   0.0000	
 47.4307	  -1.0583	   0.0000	
 45.3652	  -1.2686	   0.0000	
 44.7578	  -1.2181	   0.0000	
 45.2689	  -1.1527	   0.0000	
 46.2856	   0.0956	   0.0000	
 46.5777	  -1.9464	   0.0000	
 45.9563	   0.0505	   0.0000	
 46.3619	  -1.9523	   0.0000	
 45.6537	  -0.0493	   0.0000	
 45.9981	  -1.9392	   0.0000	
 46.4722	  -0.3079	   0.0000	
 46.8992	  -1.7394	   0.0000	
 45.9849	  -0.4916	   0.0000	
 46.1463	  -1.5510	   0.0000	
 46.2284	  -0.6751	   0.0000	
 46.2142	  -1.3945	   0.0000	
 46.3021	  -0.7965	   0.0000	
 46.3797	  -1.1761	   0.0000	
 46.2636	  -0.9164	   0.0000	
 46.1034	  -1.0243	   0.0000	
 46.5606	  -0.2700	   0.0000	
 46.9354	  -1.6590	   0.0000	
 46.6532	  -0.2675	   0.0000	