# vtk DataFile Version 3.0 
Results 
ASCII 
DATASET UNSTRUCTURED_GRID 
POINTS 	    1085 float 
  0.0000	   0.6667	  0.0000	 
  0.0000	   1.3333	  0.0000	 
  0.0000	   2.0000	  0.0000	 
  0.0000	   2.6667	  0.0000	 
  0.0000	   3.3333	  0.0000	 
  0.0000	   4.0000	  0.0000	 
  0.0000	   4.6667	  0.0000	 
  0.0000	   5.3333	  0.0000	 
  0.0000	   6.0000	  0.0000	 
  0.0000	   6.6667	  0.0000	 
  0.0000	   7.3333	  0.0000	 
  0.0000	   8.0000	  0.0000	 
  0.0000	   8.6667	  0.0000	 
  0.0000	   9.3333	  0.0000	 
  0.0000	  10.0000	  0.0000	 
  0.0000	  10.6667	  0.0000	 
  0.0000	  11.3333	  0.0000	 
  0.2500	   0.9383	  0.0000	 
  0.2500	   1.5710	  0.0000	 
  0.2500	   2.2037	  0.0000	 
  0.2500	   2.8364	  0.0000	 
  0.2500	   3.4691	  0.0000	 
  0.2500	   4.1019	  0.0000	 
  0.2500	   4.7346	  0.0000	 
  0.2500	   5.3673	  0.0000	 
  0.2500	   6.0000	  0.0000	 
  0.2500	   6.6327	  0.0000	 
  0.2500	   7.2654	  0.0000	 
  0.2500	   7.8981	  0.0000	 
  0.2500	   8.5309	  0.0000	 
  0.2500	   9.1636	  0.0000	 
  0.2500	   9.7963	  0.0000	 
  0.2500	  10.4290	  0.0000	 
  0.2500	  11.0617	  0.0000	 
  0.5000	   1.2099	  0.0000	 
  0.5000	   1.8086	  0.0000	 
  0.5000	   2.4074	  0.0000	 
  0.5000	   3.0062	  0.0000	 
  0.5000	   3.6049	  0.0000	 
  0.5000	   4.2037	  0.0000	 
  0.5000	   4.8025	  0.0000	 
  0.5000	   5.4012	  0.0000	 
  0.5000	   6.0000	  0.0000	 
  0.5000	   6.5988	  0.0000	 
  0.5000	   7.1975	  0.0000	 
  0.5000	   7.7963	  0.0000	 
  0.5000	   8.3951	  0.0000	 
  0.5000	   8.9938	  0.0000	 
  0.5000	   9.5926	  0.0000	 
  0.5000	  10.1914	  0.0000	 
  0.5000	  10.7901	  0.0000	 
  0.7500	   1.4815	  0.0000	 
  0.7500	   2.0463	  0.0000	 
  0.7500	   2.6111	  0.0000	 
  0.7500	   3.1759	  0.0000	 
  0.7500	   3.7407	  0.0000	 
  0.7500	   4.3056	  0.0000	 
  0.7500	   4.8704	  0.0000	 
  0.7500	   5.4352	  0.0000	 
  0.7500	   6.0000	  0.0000	 
  0.7500	   6.5648	  0.0000	 
  0.7500	   7.1296	  0.0000	 
  0.7500	   7.6944	  0.0000	 
  0.7500	   8.2593	  0.0000	 
  0.7500	   8.8241	  0.0000	 
  0.7500	   9.3889	  0.0000	 
  0.7500	   9.9537	  0.0000	 
  0.7500	  10.5185	  0.0000	 
  1.0000	   1.7531	  0.0000	 
  1.0000	   2.2840	  0.0000	 
  1.0000	   2.8148	  0.0000	 
  1.0000	   3.3457	  0.0000	 
  1.0000	   3.8765	  0.0000	 
  1.0000	   4.4074	  0.0000	 
  1.0000	   4.9383	  0.0000	 
  1.0000	   5.4691	  0.0000	 
  1.0000	   6.0000	  0.0000	 
  1.0000	   6.5309	  0.0000	 
  1.0000	   7.0617	  0.0000	 
  1.0000	   7.5926	  0.0000	 
  1.0000	   8.1235	  0.0000	 
  1.0000	   8.6543	  0.0000	 
  1.0000	   9.1852	  0.0000	 
  1.0000	   9.7160	  0.0000	 
  1.0000	  10.2469	  0.0000	 
  1.2500	   2.0247	  0.0000	 
  1.2500	   2.5216	  0.0000	 
  1.2500	   3.0185	  0.0000	 
  1.2500	   3.5154	  0.0000	 
  1.2500	   4.0123	  0.0000	 
  1.2500	   4.5093	  0.0000	 
  1.2500	   5.0062	  0.0000	 
  1.2500	   5.5031	  0.0000	 
  1.2500	   6.0000	  0.0000	 
  1.2500	   6.4969	  0.0000	 
  1.2500	   6.9938	  0.0000	 
  1.2500	   7.4907	  0.0000	 
  1.2500	   7.9877	  0.0000	 
  1.2500	   8.4846	  0.0000	 
  1.2500	   8.9815	  0.0000	 
  1.2500	   9.4784	  0.0000	 
  1.2500	   9.9753	  0.0000	 
  1.5000	   2.2963	  0.0000	 
  1.5000	   2.7593	  0.0000	 
  1.5000	   3.2222	  0.0000	 
  1.5000	   3.6852	  0.0000	 
  1.5000	   4.1481	  0.0000	 
  1.5000	   4.6111	  0.0000	 
  1.5000	   5.0741	  0.0000	 
  1.5000	   5.5370	  0.0000	 
  1.5000	   6.0000	  0.0000	 
  1.5000	   6.4630	  0.0000	 
  1.5000	   6.9259	  0.0000	 
  1.5000	   7.3889	  0.0000	 
  1.5000	   7.8519	  0.0000	 
  1.5000	   8.3148	  0.0000	 
  1.5000	   8.7778	  0.0000	 
  1.5000	   9.2407	  0.0000	 
  1.5000	   9.7037	  0.0000	 
  1.7500	   2.5679	  0.0000	 
  1.7500	   2.9969	  0.0000	 
  1.7500	   3.4259	  0.0000	 
  1.7500	   3.8549	  0.0000	 
  1.7500	   4.2840	  0.0000	 
  1.7500	   4.7130	  0.0000	 
  1.7500	   5.1420	  0.0000	 
  1.7500	   5.5710	  0.0000	 
  1.7500	   6.0000	  0.0000	 
  1.7500	   6.4290	  0.0000	 
  1.7500	   6.8580	  0.0000	 
  1.7500	   7.2870	  0.0000	 
  1.7500	   7.7160	  0.0000	 
  1.7500	   8.1451	  0.0000	 
  1.7500	   8.5741	  0.0000	 
  1.7500	   9.0031	  0.0000	 
  1.7500	   9.4321	  0.0000	 
  2.0000	   2.8395	  0.0000	 
  2.0000	   3.2346	  0.0000	 
  2.0000	   3.6296	  0.0000	 
  2.0000	   4.0247	  0.0000	 
  2.0000	   4.4198	  0.0000	 
  2.0000	   4.8148	  0.0000	 
  2.0000	   5.2099	  0.0000	 
  2.0000	   5.6049	  0.0000	 
  2.0000	   6.0000	  0.0000	 
  2.0000	   6.3951	  0.0000	 
  2.0000	   6.7901	  0.0000	 
  2.0000	   7.1852	  0.0000	 
  2.0000	   7.5802	  0.0000	 
  2.0000	   7.9753	  0.0000	 
  2.0000	   8.3704	  0.0000	 
  2.0000	   8.7654	  0.0000	 
  2.0000	   9.1605	  0.0000	 
  2.2500	   3.1111	  0.0000	 
  2.2500	   3.4722	  0.0000	 
  2.2500	   3.8333	  0.0000	 
  2.2500	   4.1944	  0.0000	 
  2.2500	   4.5556	  0.0000	 
  2.2500	   4.9167	  0.0000	 
  2.2500	   5.2778	  0.0000	 
  2.2500	   5.6389	  0.0000	 
  2.2500	   6.0000	  0.0000	 
  2.2500	   6.3611	  0.0000	 
  2.2500	   6.7222	  0.0000	 
  2.2500	   7.0833	  0.0000	 
  2.2500	   7.4444	  0.0000	 
  2.2500	   7.8056	  0.0000	 
  2.2500	   8.1667	  0.0000	 
  2.2500	   8.5278	  0.0000	 
  2.2500	   8.8889	  0.0000	 
  2.5000	   3.3827	  0.0000	 
  2.5000	   3.7099	  0.0000	 
  2.5000	   4.0370	  0.0000	 
  2.5000	   4.3642	  0.0000	 
  2.5000	   4.6914	  0.0000	 
  2.5000	   5.0185	  0.0000	 
  2.5000	   5.3457	  0.0000	 
  2.5000	   5.6728	  0.0000	 
  2.5000	   6.0000	  0.0000	 
  2.5000	   6.3272	  0.0000	 
  2.5000	   6.6543	  0.0000	 
  2.5000	   6.9815	  0.0000	 
  2.5000	   7.3086	  0.0000	 
  2.5000	   7.6358	  0.0000	 
  2.5000	   7.9630	  0.0000	 
  2.5000	   8.2901	  0.0000	 
  2.5000	   8.6173	  0.0000	 
  2.7500	   3.6543	  0.0000	 
  2.7500	   3.9475	  0.0000	 
  2.7500	   4.2407	  0.0000	 
  2.7500	   4.5340	  0.0000	 
  2.7500	   4.8272	  0.0000	 
  2.7500	   5.1204	  0.0000	 
  2.7500	   5.4136	  0.0000	 
  2.7500	   5.7068	  0.0000	 
  2.7500	   6.0000	  0.0000	 
  2.7500	   6.2932	  0.0000	 
  2.7500	   6.5864	  0.0000	 
  2.7500	   6.8796	  0.0000	 
  2.7500	   7.1728	  0.0000	 
  2.7500	   7.4660	  0.0000	 
  2.7500	   7.7593	  0.0000	 
  2.7500	   8.0525	  0.0000	 
  2.7500	   8.3457	  0.0000	 
  3.0000	   3.9259	  0.0000	 
  3.0000	   4.1852	  0.0000	 
  3.0000	   4.4444	  0.0000	 
  3.0000	   4.7037	  0.0000	 
  3.0000	   4.9630	  0.0000	 
  3.0000	   5.2222	  0.0000	 
  3.0000	   5.4815	  0.0000	 
  3.0000	   5.7407	  0.0000	 
  3.0000	   6.0000	  0.0000	 
  3.0000	   6.2593	  0.0000	 
  3.0000	   6.5185	  0.0000	 
  3.0000	   6.7778	  0.0000	 
  3.0000	   7.0370	  0.0000	 
  3.0000	   7.2963	  0.0000	 
  3.0000	   7.5556	  0.0000	 
  3.0000	   7.8148	  0.0000	 
  3.0000	   8.0741	  0.0000	 
  3.2500	   4.1975	  0.0000	 
  3.2500	   4.4228	  0.0000	 
  3.2500	   4.6481	  0.0000	 
  3.2500	   4.8735	  0.0000	 
  3.2500	   5.0988	  0.0000	 
  3.2500	   5.3241	  0.0000	 
  3.2500	   5.5494	  0.0000	 
  3.2500	   5.7747	  0.0000	 
  3.2500	   6.0000	  0.0000	 
  3.2500	   6.2253	  0.0000	 
  3.2500	   6.4506	  0.0000	 
  3.2500	   6.6759	  0.0000	 
  3.2500	   6.9012	  0.0000	 
  3.2500	   7.1265	  0.0000	 
  3.2500	   7.3519	  0.0000	 
  3.2500	   7.5772	  0.0000	 
  3.2500	   7.8025	  0.0000	 
  3.5000	   4.4691	  0.0000	 
  3.5000	   4.6605	  0.0000	 
  3.5000	   4.8519	  0.0000	 
  3.5000	   5.0432	  0.0000	 
  3.5000	   5.2346	  0.0000	 
  3.5000	   5.4259	  0.0000	 
  3.5000	   5.6173	  0.0000	 
  3.5000	   5.8086	  0.0000	 
  3.5000	   6.0000	  0.0000	 
  3.5000	   6.1914	  0.0000	 
  3.5000	   6.3827	  0.0000	 
  3.5000	   6.5741	  0.0000	 
  3.5000	   6.7654	  0.0000	 
  3.5000	   6.9568	  0.0000	 
  3.5000	   7.1481	  0.0000	 
  3.5000	   7.3395	  0.0000	 
  3.5000	   7.5309	  0.0000	 
  3.7500	   4.7407	  0.0000	 
  3.7500	   4.8981	  0.0000	 
  3.7500	   5.0556	  0.0000	 
  3.7500	   5.2130	  0.0000	 
  3.7500	   5.3704	  0.0000	 
  3.7500	   5.5278	  0.0000	 
  3.7500	   5.6852	  0.0000	 
  3.7500	   5.8426	  0.0000	 
  3.7500	   6.0000	  0.0000	 
  3.7500	   6.1574	  0.0000	 
  3.7500	   6.3148	  0.0000	 
  3.7500	   6.4722	  0.0000	 
  3.7500	   6.6296	  0.0000	 
  3.7500	   6.7870	  0.0000	 
  3.7500	   6.9444	  0.0000	 
  3.7500	   7.1019	  0.0000	 
  3.7500	   7.2593	  0.0000	 
  4.0000	   5.0123	  0.0000	 
  4.0000	   5.1358	  0.0000	 
  4.0000	   5.2593	  0.0000	 
  4.0000	   5.3827	  0.0000	 
  4.0000	   5.5062	  0.0000	 
  4.0000	   5.6296	  0.0000	 
  4.0000	   5.7531	  0.0000	 
  4.0000	   5.8765	  0.0000	 
  4.0000	   6.0000	  0.0000	 
  4.0000	   6.1235	  0.0000	 
  4.0000	   6.2469	  0.0000	 
  4.0000	   6.3704	  0.0000	 
  4.0000	   6.4938	  0.0000	 
  4.0000	   6.6173	  0.0000	 
  4.0000	   6.7407	  0.0000	 
  4.0000	   6.8642	  0.0000	 
  4.0000	   6.9877	  0.0000	 
  4.2500	   5.2840	  0.0000	 
  4.2500	   5.3735	  0.0000	 
  4.2500	   5.4630	  0.0000	 
  4.2500	   5.5525	  0.0000	 
  4.2500	   5.6420	  0.0000	 
  4.2500	   5.7315	  0.0000	 
  4.2500	   5.8210	  0.0000	 
  4.2500	   5.9105	  0.0000	 
  4.2500	   6.0000	  0.0000	 
  4.2500	   6.0895	  0.0000	 
  4.2500	   6.1790	  0.0000	 
  4.2500	   6.2685	  0.0000	 
  4.2500	   6.3580	  0.0000	 
  4.2500	   6.4475	  0.0000	 
  4.2500	   6.5370	  0.0000	 
  4.2500	   6.6265	  0.0000	 
  4.2500	   6.7160	  0.0000	 
  4.5000	   5.5556	  0.0000	 
  4.5000	   5.6111	  0.0000	 
  4.5000	   5.6667	  0.0000	 
  4.5000	   5.7222	  0.0000	 
  4.5000	   5.7778	  0.0000	 
  4.5000	   5.8333	  0.0000	 
  4.5000	   5.8889	  0.0000	 
  4.5000	   5.9444	  0.0000	 
  4.5000	   6.0000	  0.0000	 
  4.5000	   6.0556	  0.0000	 
  4.5000	   6.1111	  0.0000	 
  4.5000	   6.1667	  0.0000	 
  4.5000	   6.2222	  0.0000	 
  4.5000	   6.2778	  0.0000	 
  4.5000	   6.3333	  0.0000	 
  4.5000	   6.3889	  0.0000	 
  4.5000	   6.4444	  0.0000	 
  0.0000	   0.0000	  0.0000	 
  0.0000	  12.0000	  0.0000	 
  0.2500	   0.3056	  0.0000	 
  0.2500	  11.6944	  0.0000	 
  0.5000	   0.6111	  0.0000	 
  0.5000	  11.3889	  0.0000	 
  0.7500	   0.9167	  0.0000	 
[...]
POINT_DATA 	    1085 
VECTORS U float 
 51.3000	  -0.0000	   0.0000	
 51.3000	   0.0000	   0.0000	
 51.3000	  -0.0000	   0.0000	
 51.3000	   0.0000	   0.0000	
 51.3000	   0.0000	   0.0000	
 51.3000	   0.0000	   0.0000	
 51.3000	   0.0000	   0.0000	
 51.3000	  -0.0000	   0.0000	
 51.3000	   0.0000	   0.0000	
 51.3000	  -0.0000	   0.0000	
 51.3000	   0.0000	   0.0000	
 51.3000	  -0.0000	   0.0000	
 51.3000	  -0.0000	   0.0000	
 51.3000	   0.0000	   0.0000	
 51.3000	  -0.0000	   0.0000	
 51.3000	   0.0000	   0.0000	
 51.3000	  -0.0000	   0.0000	
 47.1375	  11.4333	   0.0000	
 52.8656	   1.4780	   0.0000	
 50.4076	  12.9743	   0.0000	
 51.4667	  -0.1732	   0.0000	
 51.1746	   6.0956	   0.0000	
 51.3909	   5.5832	   0.0000	
 51.5240	   4.7720	   0.0000	
 51.2337	   4.5471	   0.0000	
 51.6823	   3.7258	   0.0000	
 51.2540	   2.9365	   0.0000	
 51.4305	   2.9729	   0.0000	
 51.3435	   2.2435	   0.0000	
 51.4254	   1.6431	   0.0000	
 51.2791	   1.1791	   0.0000	
 51.3455	   0.5234	   0.0000	
 51.2622	   0.8681	   0.0000	
 51.3747	   0.0956	   0.0000	
 55.5137	   9.7347	   0.0000	
 42.8831	  15.6136	   0.0000	
 61.0797	   5.5176	   0.0000	
 46.5430	   7.2886	   0.0000	
 51.2867	   8.2604	   0.0000	
 51.4258	   8.5227	   0.0000	
 51.5592	   8.9209	   0.0000	
 51.3176	   8.6364	   0.0000	
 52.0178	   8.4496	   0.0000	
 51.6917	   7.1380	   0.0000	
 51.5072	   5.8031	   0.0000	
 51.8079	   5.3842	   0.0000	
 51.8790	   3.5793	   0.0000	
 51.6997	   2.4434	   0.0000	
 51.7387	   1.6201	   0.0000	
 51.0929	   1.3928	   0.0000	
 51.8324	   0.7622	   0.0000	
 50.4201	  21.8033	   0.0000	
 54.4079	   4.1564	   0.0000	
 54.9480	   9.9505	   0.0000	
 47.8354	   6.9974	   0.0000	
 51.5073	   4.3712	   0.0000	
 51.4221	   3.4103	   0.0000	
 51.9064	   2.5009	   0.0000	
 51.4641	   1.5636	   0.0000	
 51.5710	   2.5902	   0.0000	
 51.9922	   4.0931	   0.0000	
 51.9213	   3.9040	   0.0000	
 51.7740	   3.9656	   0.0000	
 52.6853	   3.8109	   0.0000	
 52.2619	   3.9057	   0.0000	
 51.8629	   2.2063	   0.0000	
 51.5062	   2.4063	   0.0000	
 51.8112	   0.9798	   0.0000	
 58.9997	   8.4614	   0.0000	
 55.3637	   3.2140	   0.0000	
 52.1468	   8.7388	   0.0000	
 51.8827	   0.7617	   0.0000	
 52.2831	  -0.7519	   0.0000	
 51.7650	  -2.1311	   0.0000	
 52.3224	  -2.1015	   0.0000	
 50.9092	  -1.4021	   0.0000	
 51.3543	  -0.7657	   0.0000	
 51.2379	  -0.1992	   0.0000	
 51.9440	   1.2507	   0.0000	
 51.4529	   1.6785	   0.0000	
 52.5054	   2.1088	   0.0000	
 51.5858	   3.1049	   0.0000	
 52.9433	   3.2177	   0.0000	
 51.4138	   2.9317	   0.0000	
 52.3503	   1.2085	   0.0000	
 60.6376	   4.1253	   0.0000	
 50.2110	   1.8168	   0.0000	
 55.0149	   1.8042	   0.0000	
 52.6569	  -1.6866	   0.0000	
 53.0687	  -2.8370	   0.0000	
 51.6801	  -3.8547	   0.0000	
 51.9993	  -2.4657	   0.0000	
 50.6409	  -2.6815	   0.0000	
 50.8071	  -1.3788	   0.0000	
 50.9479	  -0.1235	   0.0000	
 51.2811	   0.2035	   0.0000	
 51.2596	   1.6590	   0.0000	
 52.0492	   1.6034	   0.0000	
 51.4258	   2.9048	   0.0000	
 52.6712	   2.2533	   0.0000	
 51.6902	   3.7808	   0.0000	
 53.3325	   1.4523	   0.0000	
 57.2432	   0.4322	   0.0000	
 51.5778	  -9.1456	   0.0000	
 55.1477	  -4.2659	   0.0000	
 52.8516	  -5.3064	   0.0000	
 53.1830	  -4.6009	   0.0000	
 50.5558	  -3.7371	   0.0000	
 52.0413	  -2.3083	   0.0000	
 49.7861	  -1.4006	   0.0000	
 50.7019	  -0.8749	   0.0000	
 50.2797	  -0.7202	   0.0000	
 51.2105	   0.1814	   0.0000	
 50.5038	   0.5293	   0.0000	
 51.9976	   0.9883	   0.0000	
 51.0290	   1.4813	   0.0000	
 52.6996	   0.7993	   0.0000	
 51.2672	   2.1134	   0.0000	
 53.7008	   0.1847	   0.0000	
 60.0029	  -1.9034	   0.0000	
 50.0313	 -10.6546	   0.0000	
 54.7848	  -4.8959	   0.0000	
 52.6617	  -6.4804	   0.0000	
 52.3549	  -5.3130	   0.0000	
 49.8446	  -6.0335	   0.0000	
 51.4695	  -3.5962	   0.0000	
 49.5548	  -4.4704	   0.0000	
 49.4813	  -2.1649	   0.0000	
 50.0922	   0.1474	   0.0000	
 50.5622	   0.3909	   0.0000	
 50.3245	   2.0199	   0.0000	
 51.4779	   1.5498	   0.0000	
 51.1756	   2.6818	   0.0000	
 52.4519	   1.2061	   0.0000	
 51.3509	   2.7393	   0.0000	
 53.5514	  -0.3996	   0.0000	
 59.4826	   1.2584	   0.0000	
 48.7218	  -9.0285	   0.0000	
 54.6007	  -2.7898	   0.0000	
 51.6270	  -2.8805	   0.0000	
 52.4828	  -2.5863	   0.0000	
 48.2667	  -2.6831	   0.0000	
 51.9674	  -1.4286	   0.0000	
 48.1193	  -0.4406	   0.0000	
 49.6773	  -0.2963	   0.0000	
 48.7904	  -0.7124	   0.0000	
 50.5759	   0.4462	   0.0000	
 49.2891	   1.0244	   0.0000	
 51.7350	   1.1169	   0.0000	
 50.4729	   1.4704	   0.0000	
 52.7306	   1.0945	   0.0000	
 50.8246	   2.5463	   0.0000	
 54.2392	  -0.1725	   0.0000	
 60.6531	   2.0857	   0.0000	
 48.5348	 -12.0839	   0.0000	
 53.0363	  -5.8400	   0.0000	
 51.8934	  -7.1742	   0.0000	
 51.9774	  -6.3703	   0.0000	
 47.7768	  -8.7115	   0.0000	
 50.8629	  -4.6610	   0.0000	
 47.9106	  -5.5399	   0.0000	
 47.6716	  -2.6115	   0.0000	
 48.8198	   0.6500	   0.0000	
 49.5006	   0.7717	   0.0000	
 48.9448	   3.4083	   0.0000	
 51.1052	   2.2459	   0.0000	
 50.7493	   3.7208	   0.0000	
 51.8209	   2.3321	   0.0000	
 51.1222	   4.2714	   0.0000	
 53.8663	   0.6120	   0.0000	
 61.9214	   4.0876	   0.0000	
 46.8780	  -8.2223	   0.0000	
 52.8292	  -3.2855	   0.0000	
 50.6979	  -2.2923	   0.0000	
 53.0100	  -1.6857	   0.0000	
 44.8640	  -2.6699	   0.0000	
 51.7318	  -0.2414	   0.0000	
 46.3684	  -0.6581	   0.0000	
 47.7856	  -0.4650	   0.0000	
 47.1027	  -0.7680	   0.0000	
 49.5591	   0.0387	   0.0000	
 47.0352	   1.2133	   0.0000	
 51.7067	   0.5266	   0.0000	
 49.4700	   1.5504	   0.0000	
 52.2247	   1.6535	   0.0000	
 50.1443	   2.4691	   0.0000	
 54.3127	  -0.0385	   0.0000	
 59.1143	   0.8703	   0.0000	
 49.3212	 -11.3276	   0.0000	
 51.0971	 -10.4802	   0.0000	
 51.0076	 -11.3278	   0.0000	
 51.4757	  -8.0853	   0.0000	
 43.8280	 -12.1727	   0.0000	
 51.1843	  -6.7590	   0.0000	
 44.9133	  -5.2641	   0.0000	
 45.0028	  -2.1122	   0.0000	
 46.4011	   1.6642	   0.0000	
 48.3741	   3.2425	   0.0000	
 46.3724	   6.2921	   0.0000	
 51.0985	   3.6097	   0.0000	
 49.3728	   6.2836	   0.0000	
 50.5768	   5.1261	   0.0000	
 51.8609	   5.1576	   0.0000	
 52.9478	   1.4129	   0.0000	
 56.8272	   1.6646	   0.0000	
 51.4952	  -0.2809	   0.0000	
 52.5762	  -3.9406	   0.0000	
 47.4856	  -4.1526	   0.0000	
 53.7828	  -2.0479	   0.0000	
 39.9755	  -6.6632	   0.0000	
 48.4704	   2.2569	   0.0000	
 43.9352	  -1.0650	   0.0000	
 45.7821	  -1.3709	   0.0000	
 44.1481	  -2.4282	   0.0000	
 46.0006	  -2.1028	   0.0000	
 43.6768	   3.0687	   0.0000	
 52.6122	   0.3194	   0.0000	
 47.2380	   3.2078	   0.0000	
 51.4267	   1.8074	   0.0000	
 51.1395	  -0.0924	   0.0000	
 54.3327	  -0.4729	   0.0000	
 48.2467	 -12.2486	   0.0000	
 57.8798	  -7.8904	   0.0000	
 49.5882	 -12.2195	   0.0000	
 48.0958	 -15.6470	   0.0000	
 53.2328	  -8.1489	   0.0000	
 31.8692	 -13.6304	   0.0000	
 52.3682	  -9.7651	   0.0000	
 42.8622	  -8.3246	   0.0000	
 37.8696	  -0.8055	   0.0000	
 44.0552	   6.5856	   0.0000	
 46.4626	   7.6452	   0.0000	
 38.1676	   9.0732	   0.0000	
 52.0450	   6.2345	   0.0000	
 46.7501	  12.5778	   0.0000	
 51.0386	   7.9790	   0.0000	
 54.4436	   4.7012	   0.0000	
 48.9742	   7.0543	   0.0000	
 58.4820	  -4.1438	   0.0000	
 51.2291	  -4.7486	   0.0000	
 53.4749	  -6.1232	   0.0000	
 39.1514	  -9.0239	   0.0000	
 51.5408	   2.9843	   0.0000	
 36.8555	 -17.1172	   0.0000	
 45.0198	  -2.4892	   0.0000	
 34.1564	   1.6130	   0.0000	
 41.7233	  -1.8418	   0.0000	
 35.3743	  -4.4066	   0.0000	
 42.7447	   0.5450	   0.0000	
 42.0916	   6.3113	   0.0000	
 49.3271	  -5.4924	   0.0000	
 38.8104	   7.1722	   0.0000	
 53.3291	   3.2581	   0.0000	
 52.6911	   2.4434	   0.0000	
 55.2069	   2.1183	   0.0000	
 53.0732	 -17.7347	   0.0000	
 54.4193	 -16.2792	   0.0000	
 41.7853	 -21.5267	   0.0000	
 26.9036	 -23.7886	   0.0000	
 75.4806	  -8.2876	   0.0000	
 14.3952	 -17.6608	   0.0000	
 37.1020	  -5.5341	   0.0000	
 40.9035	 -10.1128	   0.0000	
 28.2508	  -0.0520	   0.0000	
 39.3138	   7.9983	   0.0000	
 34.2600	   6.8427	   0.0000	
 30.3602	  13.0408	   0.0000	
 64.4516	   9.1136	   0.0000	
 25.8345	  23.7051	   0.0000	
 45.9209	  18.3110	   0.0000	
 55.5512	  10.3476	   0.0000	
 52.6109	  11.7313	   0.0000	
 57.6395	 -15.0723	   0.0000	
 41.1771	 -25.1186	   0.0000	
  8.8727	 -30.5044	   0.0000	
 69.7379	 -23.3749	   0.0000	
 31.0000	 -13.0376	   0.0000	
 10.0729	 -20.5229	   0.0000	
 46.4292	 -18.0666	   0.0000	
 16.5622	  -4.4696	   0.0000	
 24.7338	  -3.2300	   0.0000	
 22.6897	  -0.4229	   0.0000	
 35.4353	   9.8012	   0.0000	
 22.0429	  14.3121	   0.0000	
 34.4605	  14.5824	   0.0000	
 63.3500	  19.8330	   0.0000	
  8.8908	  25.2987	   0.0000	
 47.9384	  16.3777	   0.0000	
 65.1312	   6.4947	   0.0000	
 24.7093	 -55.2044	   0.0000	
 53.8033	 -43.2338	   0.0000	
 -0.5301	 -41.8252	   0.0000	
 45.7896	 -36.8376	   0.0000	
-16.8914	 -30.7389	   0.0000	
 43.7550	 -21.4571	   0.0000	
-11.8699	 -14.2368	   0.0000	
 18.1763	  -8.8252	   0.0000	
  3.5433	  -1.6031	   0.0000	
 15.9389	   5.6201	   0.0000	
  2.6048	  11.6934	   0.0000	
 23.0509	  19.0485	   0.0000	
  4.4588	  25.7766	   0.0000	
 28.6836	  32.0511	   0.0000	
 23.6307	  38.2252	   0.0000	
 45.8359	  43.9926	   0.0000	
 23.5320	  55.6585	   0.0000	
 -0.0000	   0.0000	   0.0000	
  0.0000	   0.0000	   0.0000	
  0.0000	   0.0000	   0.0000	
 -0.0000	   0.0000	   0.0000	
 -0.0000	  -0.0000	   0.0000	
 -0.0000	   0.0000	   0.0000	
 -0.0000	   0.0000	   0.0000	
 -0.0000	  -0.0000	   0.0000	
  0.0000	   0.0000	   0.0000	
 -0.0000	   0.0000	   0.0000	
 -0.0000	  -0.0000	   0.0000	
 -0.0000	  -0.0000	   0.0000	
 -0.0000	  -0.0000	   0.0000	
  0.0000	   0.0000	   0.0000	
  0.0000	   0.0000	   0.0000	
  0.0000	   0.0000	   0.0000	
  0.0000	  -0.0000	   0.0000	
 51.3000	  -0.0000	   0.0000	
 51.3000	  -0.0000	   0.0000	
 47.1592	  -1.4314	   0.0000	
 51.2783	   0.4129	   0.0000	
 29.6575	   1.0067	   0.0000	
 50.9821	   0.7739	   0.0000	
 40.6857	  -6.1813	   0.0000	
 51.4418	   1.3698	   0.0000	
 27.0987	  -1.4553	   0.0000	
 51.4562	   1.7397	   0.0000	
 44.5796	 -13.5210	   0.0000	
 51.2200	   1.9102	   0.0000	
 46.8802	 -15.3903	   0.0000	
 51.8537	   2.3808	   0.0000	
 45.5968	 -14.0216	   0.0000	
 51.5532	   2.3454	   0.0000	
 47.5700	 -14.4395	   0.0000	
 51.0760	   2.4179	   0.0000	
 45.9900	 -12.6042	   0.0000	
 51.8982	   3.4454	   0.0000	
 46.7525	 -12.1158	   0.0000	
 51.0445	   3.4641	   0.0000	
 48.9203	 -13.2906	   0.0000	
 51.4073	   4.7788	   0.0000	
 46.2155	 -11.7794	   0.0000	
 48.6203	   4.5686	   0.0000	
 51.3711	 -15.0133	   0.0000	
 52.3038	   8.3218	   0.0000	
 44.4681	 -11.3039	   0.0000	
 45.8906	   6.5244	   0.0000	
 54.5348	 -18.7997	   0.0000	
 53.1918	  14.0623	   0.0000	
 49.0496	 -17.5380	   0.0000	
 46.5349	  15.7208	   0.0000	
 73.8975	 -26.7698	   0.0000	
 76.1171	  25.6870	   0.0000	
  0.0000	   0.0000	   0.0000	
 -0.0000	   0.0000	   0.0000	
 57.8643	  -0.0000	   0.0000	
 55.0882	  -0.0000	   0.0000	
 50.2352	   0.3826	   0.0000	
 54.6734	   0.1327	   0.0000	
 52.9838	  -0.6787	   0.0000	
 53.9325	   0.1448	   0.0000	
 53.3014	  -0.4505	   0.0000	
 54.1172	   0.4592	   0.0000	
 52.8314	  -0.1199	   0.0000	
 54.4181	   0.7850	   0.0000	
 53.9614	  -0.5881	   0.0000	
 54.4298	   1.0105	   0.0000	
 53.6461	  -0.5872	   0.0000	
 54.4064	   1.2266	   0.0000	
 52.1962	  -0.2649	   0.0000	
 54.7109	   1.5511	   0.0000	
 55.8349	  -2.2403	   0.0000	
 56.7011	   2.5798	   0.0000	
 55.9967	  -2.3352	   0.0000	
 56.7848	   3.1364	   0.0000	
 55.0924	  -2.4685	   0.0000	
 56.1015	   3.8924	   0.0000	
 58.3960	  -3.7340	   0.0000	
 58.8485	   4.8627	   0.0000	
 55.5802	  -3.3852	   0.0000	
 56.9503	   4.7867	   0.0000	
 59.4810	  -5.1188	   0.0000	
 56.7957	   4.5003	   0.0000	
 62.7758	  -5.5871	   0.0000	
 67.4009	   8.3002	   0.0000	
 62.6122	  -5.5043	   0.0000	
 55.9686	   4.7538	   0.0000	
 81.4641	 -11.0386	   0.0000	
 85.0339	  13.1084	   0.0000	
 32.0128	   0.6813	   0.0000	
 31.0931	   0.3862	   0.0000	
 -0.0000	   0.0000	   0.0000	
 -0.0000	  -0.0000	   0.0000	
 51.2796	  -0.0000	   0.0000	
 55.5628	   0.0000	   0.0000	
 51.8950	   0.2081	   0.0000	
 54.7749	  -0.2705	   0.0000	
 52.8678	   0.2111	   0.0000	
 54.5707	  -0.4900	   0.0000	
 53.6212	   0.3622	   0.0000	
 55.0058	  -0.7159	   0.0000	
 54.2503	   0.5138	   0.0000	
 55.0525	  -1.0121	   0.0000	
 53.9773	   0.8221	   0.0000	
 55.2074	  -1.3176	   0.0000	
 53.5761	   1.3767	   0.0000	
 54.8110	  -1.9427	   0.0000	
 55.0253	   1.7698	   0.0000	
 56.1335	  -2.4234	   0.0000	
 56.0809	   2.3087	   0.0000	
 57.2827	  -3.0574	   0.0000	
 56.1425	   3.0432	   0.0000	
 56.9309	  -3.8636	   0.0000	
 58.1079	   4.1346	   0.0000	
 58.8527	  -4.7597	   0.0000	
 58.8144	   5.2272	   0.0000	
 58.5550	  -5.8224	   0.0000	
 57.4523	   6.8585	   0.0000	
 56.9725	  -7.2336	   0.0000	
 61.0944	   8.9818	   0.0000	
 64.8550	  -9.4084	   0.0000	
 61.4639	  11.2411	   0.0000	
 61.2292	 -11.2684	   0.0000	
 79.5703	  14.8800	   0.0000	
 78.0137	 -13.5853	   0.0000	
 60.6168	  15.0885	   0.0000	
 60.1699	 -13.3881	   0.0000	
 35.7930	  12.7693	   0.0000	
 36.1760	 -10.9376	   0.0000	
 14.9561	   9.2318	   0.0000	
 14.9931	  -7.2462	   0.0000	
 52.6143	   0.0000	   0.0000	
 52.8364	   0.0000	   0.0000	
 51.3588	  -0.2327	   0.0000	
 52.5823	  -0.2030	   0.0000	
 51.7020	  -0.1298	   0.0000	
 52.7980	  -0.3870	   0.0000	
 51.4886	  -0.0615	   0.0000	
 52.5567	  -0.4867	   0.0000	
 51.8220	   0.1765	   0.0000	
 52.8236	  -0.7375	   0.0000	
 51.3105	   0.3255	   0.0000	
 52.3177	  -0.8214	   0.0000	
 51.7348	   0.5175	   0.0000	
 52.6870	  -1.0678	   0.0000	
 51.6350	   0.6672	   0.0000	
 52.4412	  -1.2542	   0.0000	
 50.9557	   0.8205	   0.0000	
 52.1306	  -1.5327	   0.0000	
 52.2400	   1.3975	   0.0000	
 53.1782	  -2.1022	   0.0000	
 50.6497	   1.6051	   0.0000	
 52.0247	  -2.4020	   0.0000	
 50.3356	   2.3535	   0.0000	
 51.3034	  -3.2319	   0.0000	
 51.8138	   3.2231	   0.0000	
 52.1993	  -4.0211	   0.0000	
 49.0677	   3.8230	   0.0000	
 51.3549	  -4.6584	   0.0000	
 49.6071	   5.6483	   0.0000	
 51.6620	  -7.0637	   0.0000	
 53.3346	   8.2698	   0.0000	
 54.4872	  -9.5580	   0.0000	
 59.1698	  14.5086	   0.0000	
 60.3816	 -15.4999	   0.0000	
 48.0326	  14.1642	   0.0000	
 50.1123	 -15.2270	   0.0000	
 27.1409	  10.1771	   0.0000	
 28.3471	 -11.0437	   0.0000	
 50.6240	  -0.0000	   0.0000	
 51.2612	   0.0000	   0.0000	
 51.0755	   0.2475	   0.0000	
 51.5505	  -0.1861	   0.0000	
 51.2641	   0.4563	   0.0000	
 51.6357	  -0.3354	   0.0000	
 51.2759	   0.5930	   0.0000	
 51.6430	  -0.4549	   0.0000	
 51.1588	   0.5680	   0.0000	
 51.7682	  -0.6064	   0.0000	
 51.0450	   0.5750	   0.0000	
 51.7513	  -0.7460	   0.0000	
 50.9872	   0.6122	   0.0000	
 51.8077	  -0.8972	   0.0000	
 50.9071	   0.6640	   0.0000	
 51.5210	  -0.9439	   0.0000	
 51.3519	   0.8738	   0.0000	
 51.9028	  -1.2098	   0.0000	
 50.8090	   0.8025	   0.0000	
 51.4214	  -1.1817	   0.0000	
 51.0608	   0.9014	   0.0000	
 51.5676	  -1.3444	   0.0000	
 50.7994	   1.0264	   0.0000	
 51.3737	  -1.5632	   0.0000	
 49.9192	   0.6594	   0.0000	
 50.7403	  -1.4506	   0.0000	
 50.5884	   1.0495	   0.0000	
 51.1777	  -1.7336	   0.0000	
 49.6381	   0.8168	   0.0000	
 50.3984	  -1.7309	   0.0000	
 47.8353	   0.1924	   0.0000	
 48.7880	  -1.4654	   0.0000	
 49.5155	   1.1921	   0.0000	
 49.8132	  -2.3207	   0.0000	
 47.2956	   2.2915	   0.0000	
 49.1895	  -4.2175	   0.0000	
 41.8071	   5.7288	   0.0000	
 43.1403	  -7.1074	   0.0000	
 50.7714	  -0.0000	   0.0000	
 51.0355	   0.0000	   0.0000	
 50.7573	  -0.0273	   0.0000	
 51.0623	  -0.0196	   0.0000	
 50.7755	  -0.0497	   0.0000	
 51.0813	  -0.0375	   0.0000	
 50.8221	  -0.0596	   0.0000	
 51.0974	  -0.0572	   0.0000	
 50.8540	  -0.0758	   0.0000	
 51.1626	  -0.0996	   0.0000	
 50.7612	  -0.0542	   0.0000	
 51.0917	  -0.1321	   0.0000	
 50.7917	   0.0954	   0.0000	
 51.1032	  -0.2456	   0.0000	
 50.7740	   0.2191	   0.0000	
 51.1142	  -0.3652	   0.0000	
 50.7415	   0.3141	   0.0000	
 50.9981	  -0.4542	   0.0000	
 50.5549	   0.2801	   0.0000	
 50.8827	  -0.5813	   0.0000	
 50.7496	   0.4640	   0.0000	
 51.1123	  -0.8494	   0.0000	
 50.2104	   0.4143	   0.0000	
 50.6448	  -0.8781	   0.0000	
 50.5266	   0.7361	   0.0000	
 50.9252	  -1.2169	   0.0000	
 49.9293	   0.5959	   0.0000	
 50.3737	  -1.1224	   0.0000	
 49.7125	   0.7533	   0.0000	
 50.2300	  -1.3240	   0.0000	
 50.0690	   0.8684	   0.0000	
 50.3445	  -1.4805	   0.0000	
 48.9211	   0.2408	   0.0000	
 49.3188	  -1.0879	   0.0000	
 50.2246	   0.1069	   0.0000	
 49.8149	  -1.0057	   0.0000	
 44.4493	  -1.8664	   0.0000	
 45.7776	   0.1633	   0.0000	
  0.0000	   0.0000	   0.0000	
  0.0000	   0.0000	   0.0000	
 -0.0000	   0.0000	   0.0000	
 -0.0000	  -0.0000	   0.0000	
 -0.0000	   0.0000	   0.0000	
 -0.0000	   0.0000	   0.0000	
  0.0000	  -0.0000	   0.0000	
  0.0000	  -0.0000	   0.0000	
  0.0000	  -0.0000	   0.0000	
  0.0000	  -0.0000	   0.0000	
  0.0000	  -0.0000	   0.0000	
 -0.0000	  -0.0000	   0.0000	
  0.0000	   0.0000	   0.0000	
  0.0000	  -0.0000	   0.0000	
  0.0000	  -0.0000	   0.0000	
  0.0000	   0.0000	   0.0000	
  0.0000	   0.0000	   0.0000	
  0.0000	   0.0000	   0.0000	
 15.6571	   8.9671	   0.0000	
 14.2877	  -6.8496	   0.0000	
 17.6590	   8.1336	   0.0000	
 17.2396	  -6.3768	   0.0000	
 15.7738	   7.0940	   0.0000	
 16.9756	  -5.3573	   0.0000	
 12.6622	   6.0534	   0.0000	
 14.1404	  -4.1332	   0.0000	
  9.8582	   5.0125	   0.0000	
 10.3696	  -2.8533	   0.0000	
  7.7199	   3.9323	   0.0000	
  8.1309	  -1.6366	   0.0000	
  6.1494	   2.9705	   0.0000	
  6.5764	  -0.6009	   0.0000	
  0.0000	   0.0000	   0.0000	
  0.0000	   0.0000	   0.0000	
 28.3625	   9.2677	   0.0000	
 26.3869	  -9.8788	   0.0000	
 31.4267	   8.2281	   0.0000	
 27.0939	  -8.6572	   0.0000	
 32.0129	   7.0949	   0.0000	
 30.4069	  -7.7089	   0.0000	
 32.0733	   5.8579	   0.0000	
 31.7702	  -6.6990	   0.0000	
 32.3678	   4.5032	   0.0000	
 32.3117	  -5.5478	   0.0000	
 32.5665	   3.0487	   0.0000	
 32.3487	  -4.2791	   0.0000	
 32.6981	   1.5155	   0.0000	
 32.5901	  -2.9437	   0.0000	
  0.0000	   0.0000	   0.0000	
  0.0000	   0.0000	   0.0000	
 46.8630	   2.6035	   0.0000	
 46.0597	  -4.7437	   0.0000	
 49.6430	   2.1015	   0.0000	
 47.5178	  -4.0450	   0.0000	
 49.4826	   1.6459	   0.0000	
 48.1153	  -3.4653	   0.0000	
 49.3476	   1.1183	   0.0000	
 48.4722	  -2.8436	   0.0000	
 49.2091	   0.6500	   0.0000	
 48.5559	  -2.3988	   0.0000	
 49.0163	   0.1966	   0.0000	
 48.6519	  -1.8677	   0.0000	
 48.8756	  -0.2698	   0.0000	
 48.7378	  -1.4914	   0.0000	
  0.0000	   0.0000	   0.0000	
  0.0000	   0.0000	   0.0000	
 47.7312	  -1.1578	   0.0000	
 46.7342	   0.0570	   0.0000	
 50.0232	  -1.1025	   0.0000	
 50.3162	   0.0412	   0.0000	
 49.8645	  -0.9915	   0.0000	
 50.6062	   0.0619	   0.0000	
 49.6112	  -0.8663	   0.0000	
 50.0635	   0.0535	   0.0000	
 49.7614	  -0.7582	   0.0000	
 50.0151	  -0.0066	   0.0000	
 49.5963	  -0.5815	   0.0000	
 49.7490	  -0.0682	   0.0000	
 49.6808	  -0.4497	   0.0000	
 49.8187	  -0.1266	   0.0000	
 -0.0000	  -0.0000	   0.0000	
  0.0000	  -0.0000	   0.0000	
 -0.0000	   0.0000	   0.0000	
  6.0542	   2.0499	   0.0000	
  5.6768	   1.3358	   0.0000	
  5.5636	   0.6688	   0.0000	
 33.3949	   0.1194	   0.0000	
 33.0042	  -0.7243	   0.0000	
 32.4822	  -1.5818	   0.0000	
 48.6816	  -0.7500	   0.0000	
 48.9795	  -0.8183	   0.0000	
 49.0918	  -1.0093	   0.0000	
 49.3632	  -0.4163	   0.0000	
 49.4012	  -0.3385	   0.0000	
 49.7893	  -0.1672	   0.0000	
 48.8036	  -0.0780	   0.0000	
 48.9253	  -0.7820	   0.0000	
 47.4526	  -0.3328	   0.0000	
 47.9666	  -0.5681	   0.0000	
 46.2708	  -0.6347	   0.0000	
 47.2107	  -0.2900	   0.0000	
 48.6447	  -1.3270	   0.0000	
 48.6543	   0.2593	   0.0000	
 49.8913	  -1.0627	   0.0000	
 50.5067	  -0.0179	   0.0000	
 49.5290	  -0.8714	   0.0000	
 49.9400	  -0.2757	   0.0000	
 49.4479	  -0.7397	   0.0000	
 49.7206	  -0.4335	   0.0000	
 49.6128	  -0.6496	   0.0000	
 49.6395	  -0.5592	   0.0000	
 49.5270	   0.3514	   0.0000	
 49.6534	  -1.1648	   0.0000	
 49.9687	   0.4502	   0.0000	