# vtk DataFile Version 3.0 
Results 
ASCII 
DATASET UNSTRUCTURED_GRID 
POINTS 	    1451 float 
  0.0000	   0.6000	  0.0000	 
  0.0000	   1.2000	  0.0000	 
  0.0000	   1.8000	  0.0000	 
  0.0000	   2.4000	  0.0000	 
  0.0000	   3.0000	  0.0000	 
  0.0000	   3.6000	  0.0000	 
  0.0000	   4.2000	  0.0000	 
  0.0000	   4.8000	  0.0000	 
  0.0000	   5.4000	  0.0000	 
  0.0000	   6.0000	  0.0000	 
  0.0000	   6.6000	  0.0000	 
  0.0000	   7.2000	  0.0000	 
  0.0000	   7.8000	  0.0000	 
  0.0000	   8.4000	  0.0000	 
  0.0000	   9.0000	  0.0000	 
  0.0000	   9.6000	  0.0000	 
  0.0000	  10.2000	  0.0000	 
  0.0000	  10.8000	  0.0000	 
  0.0000	  11.4000	  0.0000	 
  0.2250	   0.8475	  0.0000	 
  0.2250	   1.4200	  0.0000	 
  0.2250	   1.9925	  0.0000	 
  0.2250	   2.5650	  0.0000	 
  0.2250	   3.1375	  0.0000	 
  0.2250	   3.7100	  0.0000	 
  0.2250	   4.2825	  0.0000	 
  0.2250	   4.8550	  0.0000	 
  0.2250	   5.4275	  0.0000	 
  0.2250	   6.0000	  0.0000	 
  0.2250	   6.5725	  0.0000	 
  0.2250	   7.1450	  0.0000	 
  0.2250	   7.7175	  0.0000	 
  0.2250	   8.2900	  0.0000	 
  0.2250	   8.8625	  0.0000	 
  0.2250	   9.4350	  0.0000	 
  0.2250	  10.0075	  0.0000	 
  0.2250	  10.5800	  0.0000	 
  0.2250	  11.1525	  0.0000	 
  0.4500	   1.0950	  0.0000	 
  0.4500	   1.6400	  0.0000	 
  0.4500	   2.1850	  0.0000	 
  0.4500	   2.7300	  0.0000	 
  0.4500	   3.2750	  0.0000	 
  0.4500	   3.8200	  0.0000	 
  0.4500	   4.3650	  0.0000	 
  0.4500	   4.9100	  0.0000	 
  0.4500	   5.4550	  0.0000	 
  0.4500	   6.0000	  0.0000	 
  0.4500	   6.5450	  0.0000	 
  0.4500	   7.0900	  0.0000	 
  0.4500	   7.6350	  0.0000	 
  0.4500	   8.1800	  0.0000	 
  0.4500	   8.7250	  0.0000	 
  0.4500	   9.2700	  0.0000	 
  0.4500	   9.8150	  0.0000	 
  0.4500	  10.3600	  0.0000	 
  0.4500	  10.9050	  0.0000	 
  0.6750	   1.3425	  0.0000	 
  0.6750	   1.8600	  0.0000	 
  0.6750	   2.3775	  0.0000	 
  0.6750	   2.8950	  0.0000	 
  0.6750	   3.4125	  0.0000	 
  0.6750	   3.9300	  0.0000	 
  0.6750	   4.4475	  0.0000	 
  0.6750	   4.9650	  0.0000	 
  0.6750	   5.4825	  0.0000	 
  0.6750	   6.0000	  0.0000	 
  0.6750	   6.5175	  0.0000	 
  0.6750	   7.0350	  0.0000	 
  0.6750	   7.5525	  0.0000	 
  0.6750	   8.0700	  0.0000	 
  0.6750	   8.5875	  0.0000	 
  0.6750	   9.1050	  0.0000	 
  0.6750	   9.6225	  0.0000	 
  0.6750	  10.1400	  0.0000	 
  0.6750	  10.6575	  0.0000	 
  0.9000	   1.5900	  0.0000	 
  0.9000	   2.0800	  0.0000	 
  0.9000	   2.5700	  0.0000	 
  0.9000	   3.0600	  0.0000	 
  0.9000	   3.5500	  0.0000	 
  0.9000	   4.0400	  0.0000	 
  0.9000	   4.5300	  0.0000	 
  0.9000	   5.0200	  0.0000	 
  0.9000	   5.5100	  0.0000	 
  0.9000	   6.0000	  0.0000	 
  0.9000	   6.4900	  0.0000	 
  0.9000	   6.9800	  0.0000	 
  0.9000	   7.4700	  0.0000	 
  0.9000	   7.9600	  0.0000	 
  0.9000	   8.4500	  0.0000	 
  0.9000	   8.9400	  0.0000	 
  0.9000	   9.4300	  0.0000	 
  0.9000	   9.9200	  0.0000	 
  0.9000	  10.4100	  0.0000	 
  1.1250	   1.8375	  0.0000	 
  1.1250	   2.3000	  0.0000	 
  1.1250	   2.7625	  0.0000	 
  1.1250	   3.2250	  0.0000	 
  1.1250	   3.6875	  0.0000	 
  1.1250	   4.1500	  0.0000	 
  1.1250	   4.6125	  0.0000	 
  1.1250	   5.0750	  0.0000	 
  1.1250	   5.5375	  0.0000	 
  1.1250	   6.0000	  0.0000	 
  1.1250	   6.4625	  0.0000	 
  1.1250	   6.9250	  0.0000	 
  1.1250	   7.3875	  0.0000	 
  1.1250	   7.8500	  0.0000	 
  1.1250	   8.3125	  0.0000	 
  1.1250	   8.7750	  0.0000	 
  1.1250	   9.2375	  0.0000	 
  1.1250	   9.7000	  0.0000	 
  1.1250	  10.1625	  0.0000	 
  1.3500	   2.0850	  0.0000	 
  1.3500	   2.5200	  0.0000	 
  1.3500	   2.9550	  0.0000	 
  1.3500	   3.3900	  0.0000	 
  1.3500	   3.8250	  0.0000	 
  1.3500	   4.2600	  0.0000	 
  1.3500	   4.6950	  0.0000	 
  1.3500	   5.1300	  0.0000	 
  1.3500	   5.5650	  0.0000	 
  1.3500	   6.0000	  0.0000	 
  1.3500	   6.4350	  0.0000	 
  1.3500	   6.8700	  0.0000	 
  1.3500	   7.3050	  0.0000	 
  1.3500	   7.7400	  0.0000	 
  1.3500	   8.1750	  0.0000	 
  1.3500	   8.6100	  0.0000	 
  1.3500	   9.0450	  0.0000	 
  1.3500	   9.4800	  0.0000	 
  1.3500	   9.9150	  0.0000	 
  1.5750	   2.3325	  0.0000	 
  1.5750	   2.7400	  0.0000	 
  1.5750	   3.1475	  0.0000	 
  1.5750	   3.5550	  0.0000	 
  1.5750	   3.9625	  0.0000	 
  1.5750	   4.3700	  0.0000	 
  1.5750	   4.7775	  0.0000	 
  1.5750	   5.1850	  0.0000	 
  1.5750	   5.5925	  0.0000	 
  1.5750	   6.0000	  0.0000	 
  1.5750	   6.4075	  0.0000	 
  1.5750	   6.8150	  0.0000	 
  1.5750	   7.2225	  0.0000	 
  1.5750	   7.6300	  0.0000	 
  1.5750	   8.0375	  0.0000	 
  1.5750	   8.4450	  0.0000	 
  1.5750	   8.8525	  0.0000	 
  1.5750	   9.2600	  0.0000	 
  1.5750	   9.6675	  0.0000	 
  1.8000	   2.5800	  0.0000	 
  1.8000	   2.9600	  0.0000	 
  1.8000	   3.3400	  0.0000	 
  1.8000	   3.7200	  0.0000	 
  1.8000	   4.1000	  0.0000	 
  1.8000	   4.4800	  0.0000	 
  1.8000	   4.8600	  0.0000	 
  1.8000	   5.2400	  0.0000	 
  1.8000	   5.6200	  0.0000	 
  1.8000	   6.0000	  0.0000	 
  1.8000	   6.3800	  0.0000	 
  1.8000	   6.7600	  0.0000	 
  1.8000	   7.1400	  0.0000	 
  1.8000	   7.5200	  0.0000	 
  1.8000	   7.9000	  0.0000	 
  1.8000	   8.2800	  0.0000	 
  1.8000	   8.6600	  0.0000	 
  1.8000	   9.0400	  0.0000	 
  1.8000	   9.4200	  0.0000	 
  2.0250	   2.8275	  0.0000	 
  2.0250	   3.1800	  0.0000	 
  2.0250	   3.5325	  0.0000	 
  2.0250	   3.8850	  0.0000	 
  2.0250	   4.2375	  0.0000	 
  2.0250	   4.5900	  0.0000	 
  2.0250	   4.9425	  0.0000	 
  2.0250	   5.2950	  0.0000	 
  2.0250	   5.6475	  0.0000	 
  2.0250	   6.0000	  0.0000	 
  2.0250	   6.3525	  0.0000	 
  2.0250	   6.7050	  0.0000	 
  2.0250	   7.0575	  0.0000	 
  2.0250	   7.4100	  0.0000	 
  2.0250	   7.7625	  0.0000	 
  2.0250	   8.1150	  0.0000	 
  2.0250	   8.4675	  0.0000	 
  2.0250	   8.8200	  0.0000	 
  2.0250	   9.1725	  0.0000	 
  2.2500	   3.0750	  0.0000	 
  2.2500	   3.4000	  0.0000	 
  2.2500	   3.7250	  0.0000	 
  2.2500	   4.0500	  0.0000	 
  2.2500	   4.3750	  0.0000	 
  2.2500	   4.7000	  0.0000	 
  2.2500	   5.0250	  0.0000	 
  2.2500	   5.3500	  0.0000	 
  2.2500	   5.6750	  0.0000	 
  2.2500	   6.0000	  0.0000	 
  2.2500	   6.3250	  0.0000	 
  2.2500	   6.6500	  0.0000	 
  2.2500	   6.9750	  0.0000	 
  2.2500	   7.3000	  0.0000	 
  2.2500	   7.6250	  0.0000	 
  2.2500	   7.9500	  0.0000	 
  2.2500	   8.2750	  0.0000	 
  2.2500	   8.6000	  0.0000	 
  2.2500	   8.9250	  0.0000	 
  2.4750	   3.3225	  0.0000	 
  2.4750	   3.6200	  0.0000	 
  2.4750	   3.9175	  0.0000	 
  2.4750	   4.2150	  0.0000	 
  2.4750	   4.5125	  0.0000	 
  2.4750	   4.8100	  0.0000	 
  2.4750	   5.1075	  0.0000	 
  2.4750	   5.4050	  0.0000	 
  2.4750	   5.7025	  0.0000	 
  2.4750	   6.0000	  0.0000	 
  2.4750	   6.2975	  0.0000	 
  2.4750	   6.5950	  0.0000	 
  2.4750	   6.8925	  0.0000	 
  2.4750	   7.1900	  0.0000	 
  2.4750	   7.4875	  0.0000	 
  2.4750	   7.7850	  0.0000	 
  2.4750	   8.0825	  0.0000	 
  2.4750	   8.3800	  0.0000	 
  2.4750	   8.6775	  0.0000	 
  2.7000	   3.5700	  0.0000	 
  2.7000	   3.8400	  0.0000	 
  2.7000	   4.1100	  0.0000	 
  2.7000	   4.3800	  0.0000	 
  2.7000	   4.6500	  0.0000	 
  2.7000	   4.9200	  0.0000	 
  2.7000	   5.1900	  0.0000	 
  2.7000	   5.4600	  0.0000	 
  2.7000	   5.7300	  0.0000	 
  2.7000	   6.0000	  0.0000	 
  2.7000	   6.2700	  0.0000	 
  2.7000	   6.5400	  0.0000	 
  2.7000	   6.8100	  0.0000	 
  2.7000	   7.0800	  0.0000	 
  2.7000	   7.3500	  0.0000	 
  2.7000	   7.6200	  0.0000	 
  2.7000	   7.8900	  0.0000	 
  2.7000	   8.1600	  0.0000	 
  2.7000	   8.4300	  0.0000	 
  2.9250	   3.8175	  0.0000	 
  2.9250	   4.0600	  0.0000	 
  2.9250	   4.3025	  0.0000	 
  2.9250	   4.5450	  0.0000	 
  2.9250	   4.7875	  0.0000	 
  2.9250	   5.0300	  0.0000	 
  2.9250	   5.2725	  0.0000	 
  2.9250	   5.5150	  0.0000	 
  2.9250	   5.7575	  0.0000	 
  2.9250	   6.0000	  0.0000	 
  2.9250	   6.2425	  0.0000	 
  2.9250	   6.4850	  0.0000	 
  2.9250	   6.7275	  0.0000	 
  2.9250	   6.9700	  0.0000	 
  2.9250	   7.2125	  0.0000	 
  2.9250	   7.4550	  0.0000	 
  2.9250	   7.6975	  0.0000	 
  2.9250	   7.9400	  0.0000	 
  2.9250	   8.1825	  0.0000	 
  3.1500	   4.0650	  0.0000	 
  3.1500	   4.2800	  0.0000	 
  3.1500	   4.4950	  0.0000	 
  3.1500	   4.7100	  0.0000	 
  3.1500	   4.9250	  0.0000	 
  3.1500	   5.1400	  0.0000	 
  3.1500	   5.3550	  0.0000	 
  3.1500	   5.5700	  0.0000	 
  3.1500	   5.7850	  0.0000	 
  3.1500	   6.0000	  0.0000	 
  3.1500	   6.2150	  0.0000	 
  3.1500	   6.4300	  0.0000	 
  3.1500	   6.6450	  0.0000	 
  3.1500	   6.8600	  0.0000	 
  3.1500	   7.0750	  0.0000	 
  3.1500	   7.2900	  0.0000	 
  3.1500	   7.5050	  0.0000	 
  3.1500	   7.7200	  0.0000	 
  3.1500	   7.9350	  0.0000	 
  3.3750	   4.3125	  0.0000	 
  3.3750	   4.5000	  0.0000	 
  3.3750	   4.6875	  0.0000	 
  3.3750	   4.8750	  0.0000	 
  3.3750	   5.0625	  0.0000	 
  3.3750	   5.2500	  0.0000	 
  3.3750	   5.4375	  0.0000	 
  3.3750	   5.6250	  0.0000	 
  3.3750	   5.8125	  0.0000	 
  3.3750	   6.0000	  0.0000	 
  3.3750	   6.1875	  0.0000	 
  3.3750	   6.3750	  0.0000	 
  3.3750	   6.5625	  0.0000	 
  3.3750	   6.7500	  0.0000	 
  3.3750	   6.9375	  0.0000	 
  3.3750	   7.1250	  0.0000	 
  3.3750	   7.3125	  0.0000	 
  3.3750	   7.5000	  0.0000	 
  3.3750	   7.6875	  0.0000	 
  3.6000	   4.5600	  0.0000	 
  3.6000	   4.7200	  0.0000	 
  3.6000	   4.8800	  0.0000	 
  3.6000	   5.0400	  0.0000	 
  3.6000	   5.2000	  0.0000	 
  3.6000	   5.3600	  0.0000	 
  3.6000	   5.5200	  0.0000	 
  3.6000	   5.6800	  0.0000	 
  3.6000	   5.8400	  0.0000	 
  3.6000	   6.0000	  0.0000	 
  3.6000	   6.1600	  0.0000	 
  3.6000	   6.3200	  0.0000	 
  3.6000	   6.4800	  0.0000	 
  3.6000	   6.6400	  0.0000	 
  3.6000	   6.8000	  0.0000	 
  3.6000	   6.9600	  0.0000	 
  3.6000	   7.1200	  0.0000	 
  3.6000	   7.2800	  0.0000	 
  3.6000	   7.4400	  0.0000	 
  3.8250	   4.8075	  0.0000	 
  3.8250	   4.9400	  0.0000	 
  3.8250	   5.0725	  0.0000	 
  3.8250	   5.2050	  0.0000	 
  3.8250	   5.3375	  0.0000	 
  3.8250	   5.4700	  0.0000	 
  3.8250	   5.6025	  0.0000	 
[...]
POINT_DATA 	    1451 
VECTORS U float 
 50.0000	   0.0000	   0.0000	
 50.0000	   0.0000	   0.0000	
 50.0000	   0.0000	   0.0000	
 50.0000	   0.0000	   0.0000	
 50.0000	  -0.0000	   0.0000	
 50.0000	  -0.0000	   0.0000	
 50.0000	   0.0000	   0.0000	
 50.0000	  -0.0000	   0.0000	
 50.0000	  -0.0000	   0.0000	
 50.0000	   0.0000	   0.0000	
 50.0000	  -0.0000	   0.0000	
 50.0000	  -0.0000	   0.0000	
 50.0000	   0.0000	   0.0000	
 50.0000	   0.0000	   0.0000	
 50.0000	  -0.0000	   0.0000	
 50.0000	  -0.0000	   0.0000	
 50.0000	   0.0000	   0.0000	
 50.0000	   0.0000	   0.0000	
 50.0000	  -0.0000	   0.0000	
 49.1950	   5.9082	   0.0000	
 50.2447	   5.8464	   0.0000	
 50.2050	   9.3589	   0.0000	
 49.8760	  17.3693	   0.0000	
 49.9668	   9.8159	   0.0000	
 49.8380	  16.8973	   0.0000	
 49.4709	  19.9487	   0.0000	
 49.3068	  24.8906	   0.0000	
 49.7307	  28.1898	   0.0000	
 49.9054	  29.7836	   0.0000	
 49.8527	  29.8443	   0.0000	
 50.6218	  28.8020	   0.0000	
 50.2938	  25.0186	   0.0000	
 50.1610	  23.1132	   0.0000	
 50.2978	  22.1760	   0.0000	
 49.9901	  14.4993	   0.0000	
 49.9854	  17.1831	   0.0000	
 49.3210	  14.5796	   0.0000	
 50.4324	  14.7518	   0.0000	
 50.4421	  11.0956	   0.0000	
 46.7714	  16.2060	   0.0000	
 43.7229	  30.1547	   0.0000	
 56.0531	  22.6254	   0.0000	
 44.6938	  30.1371	   0.0000	
 47.7940	  35.4875	   0.0000	
 46.0302	  45.2181	   0.0000	
 47.0092	  53.5911	   0.0000	
 48.4764	  57.8454	   0.0000	
 49.3937	  59.7086	   0.0000	
 50.1272	  59.8985	   0.0000	
 51.2000	  59.7453	   0.0000	
 53.6274	  54.2448	   0.0000	
 51.2515	  44.3160	   0.0000	
 50.3405	  42.9165	   0.0000	
 55.5650	  40.4668	   0.0000	
 47.9049	  30.3499	   0.0000	
 52.6259	  31.2428	   0.0000	
 50.2988	  31.1415	   0.0000	
 46.2855	  18.0869	   0.0000	
 39.3227	  39.6055	   0.0000	
 52.1947	  34.6249	   0.0000	
 48.7567	  43.3275	   0.0000	
 43.6748	  46.7634	   0.0000	
 42.7535	  57.7065	   0.0000	
 42.6537	  66.4273	   0.0000	
 45.3266	  70.2416	   0.0000	
 47.5757	  73.2667	   0.0000	
 47.6490	  76.5377	   0.0000	
 50.2113	  81.7265	   0.0000	
 51.1449	  80.5369	   0.0000	
 55.4079	  82.3654	   0.0000	
 57.4498	  75.5601	   0.0000	
 51.9653	  62.6943	   0.0000	
 53.6828	  59.3723	   0.0000	
 56.0872	  58.7348	   0.0000	
 50.6145	  48.1151	   0.0000	
 47.8004	  46.3326	   0.0000	
 27.0991	  42.9063	   0.0000	
 45.9888	  44.0872	   0.0000	
 49.6406	  51.8171	   0.0000	
 43.9955	  60.9678	   0.0000	
 38.9892	  59.5341	   0.0000	
 39.6126	  65.2953	   0.0000	
 41.2574	  67.5994	   0.0000	
 44.3661	  70.8195	   0.0000	
 46.5115	  72.6979	   0.0000	
 47.4184	  73.4347	   0.0000	
 47.4174	  73.3612	   0.0000	
 51.0677	  80.3650	   0.0000	
 53.7237	  79.5095	   0.0000	
 59.3330	  82.6601	   0.0000	
 59.3233	  78.4796	   0.0000	
 54.0138	  76.0022	   0.0000	
 56.7568	  76.8171	   0.0000	
 54.6230	  75.5811	   0.0000	
 55.4363	  62.9913	   0.0000	
 37.6898	  49.8899	   0.0000	
 44.7311	  61.3335	   0.0000	
 41.2291	  70.2491	   0.0000	
 46.3035	  70.0120	   0.0000	
 37.3470	  66.7134	   0.0000	
 39.4283	  66.3771	   0.0000	
 40.5152	  68.1303	   0.0000	
 43.9374	  69.0276	   0.0000	
 45.8997	  70.5438	   0.0000	
 46.6213	  72.0981	   0.0000	
 47.9981	  73.6871	   0.0000	
 47.1652	  72.0487	   0.0000	
 53.3953	  80.0094	   0.0000	
 56.8168	  78.8737	   0.0000	
 60.5899	  83.2989	   0.0000	
 52.3754	  87.2484	   0.0000	
 54.1909	  90.2217	   0.0000	
 56.4544	  93.3386	   0.0000	
 62.2838	  96.2991	   0.0000	
 35.3696	  67.5085	   0.0000	
 41.7201	  78.8160	   0.0000	
 43.8004	  74.3303	   0.0000	
 45.3492	  77.0674	   0.0000	
 38.2742	  70.4762	   0.0000	
 39.0709	  71.5756	   0.0000	
 40.9566	  70.8520	   0.0000	
 43.3353	  72.6257	   0.0000	
 45.4246	  74.2387	   0.0000	
 45.1905	  76.8164	   0.0000	
 46.8780	  79.9295	   0.0000	
 48.1807	  81.7293	   0.0000	
 48.0743	  79.8635	   0.0000	
 56.4403	  87.7398	   0.0000	
 57.4556	  86.9433	   0.0000	
 52.4464	  96.5060	   0.0000	
 51.0883	  98.1597	   0.0000	
 53.2528	 104.6078	   0.0000	
 50.8938	 113.7835	   0.0000	
 33.9434	  65.8278	   0.0000	
 45.5249	  69.1041	   0.0000	
 43.1019	  68.2376	   0.0000	
 45.6122	  69.8315	   0.0000	
 37.8593	  67.1070	   0.0000	
 40.1607	  66.0464	   0.0000	
 40.1475	  67.7483	   0.0000	
 42.6585	  70.1756	   0.0000	
 43.8036	  73.2886	   0.0000	
 44.5962	  74.6768	   0.0000	
 45.3904	  75.3909	   0.0000	
 46.7875	  78.4052	   0.0000	
 49.3670	  80.1845	   0.0000	
 50.2754	  76.8099	   0.0000	
 57.7584	  84.4990	   0.0000	
 50.2867	  86.6246	   0.0000	
 50.4498	  90.2252	   0.0000	
 48.7226	  92.5602	   0.0000	
 46.5006	 103.5726	   0.0000	
 39.3772	  60.1505	   0.0000	
 45.0196	  65.9647	   0.0000	
 42.8001	  64.8179	   0.0000	
 43.4811	  70.3377	   0.0000	
 39.1617	  65.6218	   0.0000	
 38.9597	  67.6215	   0.0000	
 39.2682	  69.5707	   0.0000	
 41.0133	  72.6017	   0.0000	
 43.0197	  74.5840	   0.0000	
 43.4322	  76.5272	   0.0000	
 45.0773	  78.4454	   0.0000	
 44.7779	  78.4894	   0.0000	
 47.7533	  81.8255	   0.0000	
 52.5005	  82.1596	   0.0000	
 51.1711	  78.0387	   0.0000	
 52.4343	  88.8935	   0.0000	
 49.1186	  86.1518	   0.0000	
 48.7509	  87.9253	   0.0000	
 41.2127	  95.3867	   0.0000	
 39.8402	  58.6651	   0.0000	
 44.0710	  64.1991	   0.0000	
 39.5697	  65.9874	   0.0000	
 44.3539	  68.0449	   0.0000	
 37.6927	  66.6569	   0.0000	
 38.0160	  68.5058	   0.0000	
 37.6991	  70.8253	   0.0000	
 40.1118	  73.0291	   0.0000	
 41.6992	  75.4266	   0.0000	
 41.8680	  77.9692	   0.0000	
 44.0033	  80.4197	   0.0000	
 44.9093	  81.8204	   0.0000	
 45.1233	  81.5374	   0.0000	
 51.0233	  83.4952	   0.0000	
 54.7338	  83.3650	   0.0000	
 45.2666	  82.9495	   0.0000	
 52.2568	  90.1899	   0.0000	
 49.1309	  87.1692	   0.0000	
 41.3321	  92.7466	   0.0000	
 39.0504	  59.0691	   0.0000	
 40.2423	  65.9839	   0.0000	
 40.8934	  64.4014	   0.0000	
 41.8240	  68.9711	   0.0000	
 36.4371	  67.9904	   0.0000	
 36.4902	  70.0593	   0.0000	
 36.6891	  71.8419	   0.0000	
 38.7361	  74.4105	   0.0000	
 40.1356	  77.0248	   0.0000	
 40.7021	  78.6603	   0.0000	
 42.5618	  79.7606	   0.0000	
 43.6713	  81.4657	   0.0000	
 45.4606	  82.7705	   0.0000	
 48.2736	  80.4673	   0.0000	
 53.1558	  82.2882	   0.0000	
 50.5936	  85.6545	   0.0000	
 42.8449	  83.9788	   0.0000	
 53.1675	  89.9446	   0.0000	
 44.2080	  91.2812	   0.0000	
 35.5077	  61.4255	   0.0000	
 42.3565	  63.8516	   0.0000	
 37.7926	  63.8763	   0.0000	
 39.7944	  68.4226	   0.0000	
 34.7615	  67.9398	   0.0000	
 35.2348	  70.1472	   0.0000	
 35.5675	  71.6445	   0.0000	
 37.1370	  73.8680	   0.0000	
 38.7722	  76.1013	   0.0000	
 39.0279	  78.4993	   0.0000	
 42.2507	  80.7178	   0.0000	
 42.2272	  80.7024	   0.0000	
 44.4137	  82.3686	   0.0000	
 49.2705	  81.5160	   0.0000	
 49.5860	  79.8924	   0.0000	
 49.5549	  85.5922	   0.0000	
 47.9575	  88.2305	   0.0000	
 42.2876	  86.8630	   0.0000	
 49.9693	  93.7635	   0.0000	
 39.8767	  60.7870	   0.0000	
 38.6790	  64.5203	   0.0000	
 35.4799	  65.6610	   0.0000	
 36.7779	  70.3963	   0.0000	
 33.2137	  70.6536	   0.0000	
 34.2574	  72.3545	   0.0000	
 34.2823	  74.0600	   0.0000	
 35.7150	  76.3057	   0.0000	
 36.8144	  79.0369	   0.0000	
 36.0252	  82.7844	   0.0000	
 40.2679	  86.2480	   0.0000	
 42.4257	  87.7006	   0.0000	
 42.8301	  86.9870	   0.0000	
 48.0998	  86.3202	   0.0000	
 50.6353	  86.6524	   0.0000	
 44.7557	  89.2448	   0.0000	
 45.9179	  95.1690	   0.0000	
 49.7304	  93.1789	   0.0000	
 37.9198	  92.5055	   0.0000	
 36.0857	  57.5467	   0.0000	
 34.1560	  59.9318	   0.0000	
 32.0634	  62.4326	   0.0000	
 33.7435	  68.2480	   0.0000	
 31.7243	  69.6459	   0.0000	
 32.9758	  72.0014	   0.0000	
 32.0965	  74.5233	   0.0000	
 33.4788	  77.9843	   0.0000	
 33.2150	  82.3968	   0.0000	
 36.9444	  81.4330	   0.0000	
 37.7629	  79.9021	   0.0000	
 40.6399	  82.2744	   0.0000	
 43.7774	  83.8017	   0.0000	
 46.8792	  81.2755	   0.0000	
 48.1099	  83.1879	   0.0000	
 46.0958	  88.0025	   0.0000	
 39.8410	  91.0573	   0.0000	
 50.5630	  87.6432	   0.0000	
 52.1778	  80.5010	   0.0000	
 31.3517	  60.6478	   0.0000	
 28.9133	  63.2449	   0.0000	
 27.3938	  66.6905	   0.0000	
 31.2450	  70.7878	   0.0000	
 29.3846	  71.9775	   0.0000	
 29.6166	  75.8565	   0.0000	
 29.4507	  78.5981	   0.0000	
 28.8962	  82.1251	   0.0000	
 34.7655	  81.4387	   0.0000	
 34.7238	  82.2137	   0.0000	
 39.8667	  85.1223	   0.0000	
 37.1385	  82.8362	   0.0000	
 41.7304	  85.0325	   0.0000	
 47.6377	  84.0110	   0.0000	
 43.3313	  86.7507	   0.0000	
 42.6640	  93.7067	   0.0000	
 41.4969	  98.0197	   0.0000	
 47.2137	  89.8348	   0.0000	
 58.0774	  80.4909	   0.0000	
 25.9303	  58.3334	   0.0000	
 22.2260	  64.0673	   0.0000	
 26.9671	  67.2976	   0.0000	
 28.4139	  71.2876	   0.0000	
 25.0607	  73.6956	   0.0000	
 26.9218	  76.8575	   0.0000	
 26.1868	  78.7765	   0.0000	
 32.5914	  76.3845	   0.0000	
 34.7883	  75.4237	   0.0000	
 27.0269	  81.9371	   0.0000	
 35.2866	  88.8436	   0.0000	
 39.7261	  92.4255	   0.0000	
 39.4432	  90.4774	   0.0000	
 43.3488	  91.8502	   0.0000	
 42.5550	  98.2986	   0.0000	
 34.7156	 104.6773	   0.0000	
 40.2188	 104.4388	   0.0000	
 54.8336	  92.9270	   0.0000	
 55.3442	  81.5105	   0.0000	
 20.1947	  53.4765	   0.0000	
 23.0040	  56.1727	   0.0000	
 11.2265	  66.5764	   0.0000	
 19.8860	  81.0484	   0.0000	
 22.1229	  86.6678	   0.0000	
 24.4395	  90.0440	   0.0000	
 32.3246	  88.7978	   0.0000	
 34.6585	  87.9128	   0.0000	
 24.5252	  95.2228	   0.0000	
 30.6463	  93.0145	   0.0000	
 26.3853	  90.0139	   0.0000	
 31.7105	  97.2763	   0.0000	
 42.4706	 101.9103	   0.0000	
 37.2474	 100.2463	   0.0000	
 34.6718	 107.1416	   0.0000	
 34.0528	 110.8561	   0.0000	
 49.4416	  99.2603	   0.0000	
 46.1347	  87.0806	   0.0000	
 66.1258	  73.5665	   0.0000	
  1.8346	  45.6712	   0.0000	
 -6.1397	  53.5798	   0.0000	
  9.2625	  62.5221	   0.0000	
 14.6670	  68.2145	   0.0000	
 18.8045	  71.9724	   0.0000	
 31.3587	  73.7193	   0.0000	
 34.0048	  73.8132	   0.0000	
 19.0243	  79.7740	   0.0000	
 28.1247	  79.9195	   0.0000	
 21.1074	  84.8815	   0.0000	
 31.1765	  91.7713	   0.0000	
 17.0931	  91.0038	   0.0000	
 27.5972	  99.6623	   0.0000	
 43.1103	 104.2450	   0.0000	
 24.7285	 113.4853	   0.0000	
 33.5746	 120.5120	   0.0000	
 32.6907	 115.2292	   0.0000	
 65.2302	 107.9167	   0.0000	
 73.8690	  88.9204	   0.0000	
 -7.5990	  63.0467	   0.0000	
  2.8171	  70.7367	   0.0000	
  7.9279	  76.3129	   0.0000	
 19.2538	  80.2533	   0.0000	
 29.2029	  84.7939	   0.0000	
 28.8665	  85.3096	   0.0000	
 11.2638	  94.1196	   0.0000	
 20.9141	  98.2085	   0.0000	
 16.4491	 105.1202	   0.0000	
 12.6819	 110.0730	   0.0000	
 15.2175	 114.5811	   0.0000	
 21.4740	 122.6927	   0.0000	
  2.9642	 127.6808	   0.0000	
 20.2904	 133.9724	   0.0000	
 14.8881	 147.5703	   0.0000	
  8.9546	 159.3020	   0.0000	
 25.6106	 153.8492	   0.0000	
 53.8862	 137.6939	   0.0000	
 66.9261	 112.4906	   0.0000	
 -2.0579	  27.8985	   0.0000	
  4.0210	  32.9427	   0.0000	
 11.7039	  38.4976	   0.0000	
 23.6607	  45.5748	   0.0000	
  0.5437	  54.3409	   0.0000	
  0.4957	  55.1201	   0.0000	
  8.3004	  59.3326	   0.0000	
  0.4533	  63.1188	   0.0000	
  6.2114	  66.3946	   0.0000	
  0.4170	  69.2601	   0.0000	
  5.7565	  72.1108	   0.0000	
  0.6647	  75.1176	   0.0000	
  6.6024	  78.5270	   0.0000	
 -0.9136	  81.0541	   0.0000	
  0.1451	  80.5603	   0.0000	
 -4.2453	  85.1340	   0.0000	
 -0.5973	  84.0726	   0.0000	
 21.6163	  80.0255	   0.0000	
 55.0157	  71.2991	   0.0000	
 -0.0000	  -0.0000	   0.0000	
  0.0000	   0.0000	   0.0000	
 -0.0000	   0.0000	   0.0000	
 -0.0000	   0.0000	   0.0000	
  0.0000	  -0.0000	   0.0000	
 -0.0000	   0.0000	   0.0000	
  0.0000	   0.0000	   0.0000	
  0.0000	  -0.0000	   0.0000	
 -0.0000	  -0.0000	   0.0000	
  0.0000	   0.0000	   0.0000	
  0.0000	   0.0000	   0.0000	
  0.0000	  -0.0000	   0.0000	
 -0.0000	   0.0000	   0.0000	
 -0.0000	   0.0000	   0.0000	
 -0.0000	  -0.0000	   0.0000	
 -0.0000	  -0.0000	   0.0000	
  0.0000	  -0.0000	   0.0000	
 -0.0000	  -0.0000	   0.0000	
  0.0000	   0.0000	   0.0000	
 50.0000	  50.0000	   0.0000	
 50.0000	  -0.0000	   0.0000	
 68.2265	  50.1137	   0.0000	
 49.9953	  15.5888	   0.0000	
 85.7542	  50.2424	   0.0000	
 48.9456	  31.1304	   0.0000	
 83.3841	  54.8628	   0.0000	
 50.1641	  47.0565	   0.0000	
 83.5726	  58.4219	   0.0000	
 50.4392	  62.9216	   0.0000	
 56.9134	  77.9339	   0.0000	
 47.2612	  76.9162	   0.0000	
 50.2740	  79.9238	   0.0000	
 79.2408	 105.0544	   0.0000	
 46.8910	  77.9454	   0.0000	
 65.8928	  92.5300	   0.0000	
 44.6859	  75.2419	   0.0000	
 58.8736	  84.9037	   0.0000	
 49.2690	  69.0518	   0.0000	
 53.3342	  79.1075	   0.0000	
 47.8435	  67.1327	   0.0000	
 53.2216	  77.1956	   0.0000	
 44.7099	  65.8063	   0.0000	
 56.7071	  77.0371	   0.0000	
 39.0558	  65.2957	   0.0000	
 64.4235	  78.5841	   0.0000	
 42.0766	  59.5755	   0.0000	
 49.0002	  68.3287	   0.0000	
 35.2131	  57.4645	   0.0000	
 61.9643	  70.7754	   0.0000	
 27.1535	  55.2609	   0.0000	
 68.3044	  69.2611	   0.0000	
 17.6733	  52.3094	   0.0000	
 68.4936	  63.6251	   0.0000	
 20.3351	  40.1774	   0.0000	
 78.7749	  61.3820	   0.0000	
-23.6786	  52.4685	   0.0000	
115.1447	  72.8038	   0.0000	
 -8.2834	  21.9664	   0.0000	
102.0593	  46.0516	   0.0000	
 -0.0000	   0.0000	   0.0000	
 -0.0000	  -0.0000	   0.0000	
 50.3290	  50.0000	   0.0000	
 84.8071	 152.0336	   0.0000	
 49.4897	  49.1060	   0.0000	
 50.8455	 135.7216	   0.0000	
 47.3002	  48.5276	   0.0000	
 36.1743	 120.9138	   0.0000	
 46.6221	  47.1746	   0.0000	
 27.2715	 108.5698	   0.0000	
 44.1771	  46.7838	   0.0000	
 27.6530	 102.8699	   0.0000	
 43.0662	  45.8510	   0.0000	
 27.4073	  98.2763	   0.0000	
 43.8004	  45.0031	   0.0000	
 27.3378	  94.6219	   0.0000	
 44.5495	  43.8134	   0.0000	
 28.0716	  91.1425	   0.0000	
 43.6251	  43.2120	   0.0000	
 30.6654	  88.1485	   0.0000	
 40.0687	  43.6259	   0.0000	
 34.2158	  84.9833	   0.0000	
 40.2814	  42.1812	   0.0000	
 38.9275	  82.2306	   0.0000	
 46.8125	  38.2388	   0.0000	
 28.5097	  73.6834	   0.0000	
 41.4701	  38.5253	   0.0000	
 39.1303	  72.7759	   0.0000	
 40.6147	  35.7226	   0.0000	
 41.9290	  67.4917	   0.0000	
 38.2331	  31.9727	   0.0000	
 43.0569	  61.6737	   0.0000	
 41.4482	  26.1402	   0.0000	
 48.5356	  53.8714	   0.0000	
 20.5788	  25.9750	   0.0000	
 69.7232	  49.7151	   0.0000	
 17.9728	  17.6977	   0.0000	
 68.9145	  36.2882	   0.0000	
 34.5032	   2.3122	   0.0000	
 59.7217	  19.9727	   0.0000	
 23.8160	   0.5653	   0.0000	
 -0.5427	  -1.3106	   0.0000	
 -0.0000	   0.0000	   0.0000	
 -0.0000	  -0.0000	   0.0000	
 58.8182	  50.0000	   0.0000	
-41.9407	  69.0990	   0.0000	
 53.5125	  50.8380	   0.0000	
-10.7802	  70.3612	   0.0000	
 50.7588	  51.1941	   0.0000	
  3.7262	  70.1288	   0.0000	
 47.8702	  51.8603	   0.0000	
 11.0422	  69.4792	   0.0000	
 47.8224	  52.0910	   0.0000	
 13.0537	  68.0860	   0.0000	
 48.6511	  52.3933	   0.0000	
 13.9669	  66.7836	   0.0000	
 47.9560	  53.0429	   0.0000	
 15.1460	  65.0322	   0.0000	
 47.2149	  52.9313	   0.0000	
 17.2018	  63.0557	   0.0000	
 46.9314	  53.5927	   0.0000	
 18.3553	  61.2299	   0.0000	
 45.9045	  54.1613	   0.0000	
 21.3188	  60.1132	   0.0000	
 52.2912	  53.7344	   0.0000	
 15.5439	  58.1773	   0.0000	
 52.1371	  53.9623	   0.0000	
 17.5354	  55.0422	   0.0000	
 55.5551	  53.8531	   0.0000	
 19.1154	  51.9254	   0.0000	
 57.4883	  54.2475	   0.0000	
 11.0508	  47.8174	   0.0000	
 61.2253	  54.0946	   0.0000	
 15.7150	  44.6714	   0.0000	
 60.9081	  50.9140	   0.0000	
 21.5913	  38.1148	   0.0000	
 58.8867	  49.3216	   0.0000	
 25.1066	  33.5880	   0.0000	
 63.4669	  49.0384	   0.0000	
 27.9591	  29.5803	   0.0000	
 60.0189	  47.5482	   0.0000	
  2.8938	  29.3807	   0.0000	
 37.4667	  46.5353	   0.0000	
  3.4367	  34.6139	   0.0000	
 27.0971	  43.5790	   0.0000	
 -0.2833	  36.9716	   0.0000	
 44.0671	  50.0000	   0.0000	
 11.4253	  55.3166	   0.0000	
 46.6845	  51.2458	   0.0000	
 -2.2244	  60.3532	   0.0000	
 45.5009	  51.6601	   0.0000	
  1.3248	  60.9381	   0.0000	
 43.8392	  51.7633	   0.0000	
  5.2854	  60.3261	   0.0000	
 43.4714	  52.1930	   0.0000	
  6.6273	  60.1963	   0.0000	
 43.5823	  52.7532	   0.0000	
  7.6143	  60.1107	   0.0000	
 42.0058	  52.9209	   0.0000	
 10.2036	  59.3610	   0.0000	
 42.6309	  53.8248	   0.0000	
  8.7241	  60.2617	   0.0000	
 43.6253	  54.3737	   0.0000	
 11.4043	  59.3873	   0.0000	
 43.1624	  55.1675	   0.0000	
 13.3202	  59.0439	   0.0000	
 44.2863	  56.5398	   0.0000	
 14.4250	  59.2715	   0.0000	
 45.2552	  57.5958	   0.0000	
 11.6389	  59.4228	   0.0000	
 47.2295	  59.5843	   0.0000	
  5.9254	  61.2620	   0.0000	
 47.8136	  61.6979	   0.0000	
 11.2668	  61.3292	   0.0000	
 48.4198	  63.1813	   0.0000	
  9.9209	  61.3133	   0.0000	
 55.9783	  68.1452	   0.0000	
  6.7075	  62.8173	   0.0000	
 52.6293	  70.1827	   0.0000	
 10.7200	  61.5533	   0.0000	
 50.7962	  72.9737	   0.0000	
 15.1457	  59.9125	   0.0000	
 51.3823	  75.9752	   0.0000	
 19.8582	  57.3818	   0.0000	
 44.1589	  79.7513	   0.0000	
 19.4748	  63.1881	   0.0000	
 24.6945	  79.1059	   0.0000	
 20.7980	  67.2570	   0.0000	
 46.5264	  50.0000	   0.0000	
 -0.7179	  45.8245	   0.0000	
 45.9473	  49.6991	   0.0000	
  2.7299	  45.0999	   0.0000	
 44.8979	  49.4977	   0.0000	
  5.3638	  44.4421	   0.0000	
 43.4080	  49.0586	   0.0000	
  8.1264	  43.7661	   0.0000	
 43.4276	  49.3431	   0.0000	
  6.6319	  45.5682	   0.0000	
 43.4203	  49.6458	   0.0000	
  5.6191	  47.5206	   0.0000	
 42.1745	  49.2416	   0.0000	
  7.1990	  47.7818	   0.0000	
 42.0650	  49.5558	   0.0000	
  8.2866	  48.7391	   0.0000	
 41.3814	  49.5930	   0.0000	
 10.1151	  49.0435	   0.0000	
 40.5219	  49.3091	   0.0000	
 11.1537	  49.5876	   0.0000	
 42.3542	  50.5862	   0.0000	
 10.1031	  51.2775	   0.0000	
 38.0527	  49.2375	   0.0000	
 15.1370	  49.8654	   0.0000	
 39.6350	  50.9132	   0.0000	
 14.9241	  50.9090	   0.0000	
 41.0166	  52.3553	   0.0000	
 12.3776	  53.1463	   0.0000	
 40.6712	  54.2086	   0.0000	
 14.6312	  55.0207	   0.0000	
 40.1909	  55.3100	   0.0000	
 13.7656	  56.4154	   0.0000	
 39.8179	  58.0731	   0.0000	
 14.1425	  58.7194	   0.0000	
 40.9954	  63.0533	   0.0000	
 14.0390	  61.5145	   0.0000	
 37.0413	  65.5426	   0.0000	
 20.8718	  61.1783	   0.0000	
 42.6675	  71.6021	   0.0000	
 17.8432	  63.9890	   0.0000	
 26.8980	  70.2040	   0.0000	
 36.5761	  58.7338	   0.0000	
 52.2133	  50.0000	   0.0000	
  0.9567	  31.4452	   0.0000	
 49.3734	  49.4587	   0.0000	
  2.4419	  32.7569	   0.0000	
 46.3334	  48.8695	   0.0000	
  3.8869	  34.0826	   0.0000	
 45.0820	  48.7348	   0.0000	
  5.2385	  35.4020	   0.0000	
 45.3789	  49.1616	   0.0000	
  7.4600	  36.4198	   0.0000	
 45.6418	  49.6552	   0.0000	
  8.0493	  38.3408	   0.0000	
 42.6768	  47.8245	   0.0000	
  9.4084	  39.1415	   0.0000	
 42.0260	  47.7982	   0.0000	
 10.3884	  39.5550	   0.0000	
 41.8948	  48.1381	   0.0000	
 11.0874	  40.4361	   0.0000	
 41.0179	  48.2088	   0.0000	
 12.1439	  41.8879	   0.0000	
 40.5817	  48.3400	   0.0000	
 14.0082	  42.7866	   0.0000	
 39.8201	  48.3071	   0.0000	
 14.8498	  44.0366	   0.0000	
 39.6078	  48.8372	   0.0000	
 15.5667	  45.7030	   0.0000	
 39.2187	  49.5216	   0.0000	
 15.6256	  47.6411	   0.0000	
 38.9333	  48.6954	   0.0000	
 15.8225	  47.7446	   0.0000	
 38.6003	  49.3447	   0.0000	
 16.0220	  48.6781	   0.0000	
 35.0451	  48.5756	   0.0000	
 24.4150	  46.4627	   0.0000	
 38.3033	  52.5960	   0.0000	
 17.0161	  54.1448	   0.0000	
 34.5054	  51.9530	   0.0000	
 21.8124	  53.6858	   0.0000	
 31.5718	  52.7465	   0.0000	
 22.3976	  56.5179	   0.0000	
 33.4613	  58.2453	   0.0000	
 21.8186	  58.6396	   0.0000	
  0.0000	   0.0000	   0.0000	
  0.0000	   0.0000	   0.0000	
 -0.0000	   0.0000	   0.0000	
  0.0000	  -0.0000	   0.0000	
 -0.0000	   0.0000	   0.0000	
  0.0000	   0.0000	   0.0000	
 -0.0000	   0.0000	   0.0000	
 -0.0000	  -0.0000	   0.0000	
 -0.0000	  -0.0000	   0.0000	
 -0.0000	   0.0000	   0.0000	
 -0.0000	  -0.0000	   0.0000	
 -0.0000	  -0.0000	   0.0000	
 -0.0000	   0.0000	   0.0000	
 -0.0000	  -0.0000	   0.0000	