# vtk DataFile Version 3.0 
Results 
ASCII 
DATASET UNSTRUCTURED_GRID 
POINTS 	     299 float 
  0.0000	   1.5000	  0.0000	 
  0.0000	   3.0000	  0.0000	 
  0.0000	   4.5000	  0.0000	 
  0.0000	   6.0000	  0.0000	 
  0.0000	   7.5000	  0.0000	 
  0.0000	   9.0000	  0.0000	 
  0.0000	  10.5000	  0.0000	 
  0.5625	   2.0156	  0.0000	 
  0.5625	   3.3438	  0.0000	 
  0.5625	   4.6719	  0.0000	 
  0.5625	   6.0000	  0.0000	 
  0.5625	   7.3281	  0.0000	 
  0.5625	   8.6562	  0.0000	 
  0.5625	   9.9844	  0.0000	 
  1.1250	   2.5312	  0.0000	 
  1.1250	   3.6875	  0.0000	 
  1.1250	   4.8438	  0.0000	 
  1.1250	   6.0000	  0.0000	 
  1.1250	   7.1562	  0.0000	 
  1.1250	   8.3125	  0.0000	 
  1.1250	   9.4688	  0.0000	 
  1.6875	   3.0469	  0.0000	 
  1.6875	   4.0312	  0.0000	 
  1.6875	   5.0156	  0.0000	 
  1.6875	   6.0000	  0.0000	 
  1.6875	   6.9844	  0.0000	 
  1.6875	   7.9688	  0.0000	 
  1.6875	   8.9531	  0.0000	 
  2.2500	   3.5625	  0.0000	 
  2.2500	   4.3750	  0.0000	 
  2.2500	   5.1875	  0.0000	 
  2.2500	   6.0000	  0.0000	 
  2.2500	   6.8125	  0.0000	 
  2.2500	   7.6250	  0.0000	 
  2.2500	   8.4375	  0.0000	 
  2.8125	   4.0781	  0.0000	 
  2.8125	   4.7188	  0.0000	 
  2.8125	   5.3594	  0.0000	 
  2.8125	   6.0000	  0.0000	 
  2.8125	   6.6406	  0.0000	 
  2.8125	   7.2812	  0.0000	 
  2.8125	   7.9219	  0.0000	 
  3.3750	   4.5938	  0.0000	 
  3.3750	   5.0625	  0.0000	 
  3.3750	   5.5312	  0.0000	 
  3.3750	   6.0000	  0.0000	 
  3.3750	   6.4688	  0.0000	 
  3.3750	   6.9375	  0.0000	 
  3.3750	   7.4062	  0.0000	 
  3.9375	   5.1094	  0.0000	 
  3.9375	   5.4062	  0.0000	 
  3.9375	   5.7031	  0.0000	 
  3.9375	   6.0000	  0.0000	 
  3.9375	   6.2969	  0.0000	 
  3.9375	   6.5938	  0.0000	 
  3.9375	   6.8906	  0.0000	 
  4.5000	   5.6250	  0.0000	 
  4.5000	   5.7500	  0.0000	 
  4.5000	   5.8750	  0.0000	 
  4.5000	   6.0000	  0.0000	 
  4.5000	   6.1250	  0.0000	 
  4.5000	   6.2500	  0.0000	 
  4.5000	   6.3750	  0.0000	 
  0.0000	   0.0000	  0.0000	 
  0.0000	  12.0000	  0.0000	 
  0.5625	   0.6875	  0.0000	 
  0.5625	  11.3125	  0.0000	 
  1.1250	   1.3750	  0.0000	 
  1.1250	  10.6250	  0.0000	 
  1.6875	   2.0625	  0.0000	 
  1.6875	   9.9375	  0.0000	 
  2.2500	   2.7500	  0.0000	 
  2.2500	   9.2500	  0.0000	 
  2.8125	   3.4375	  0.0000	 
  2.8125	   8.5625	  0.0000	 
  3.3750	   4.1250	  0.0000	 
  3.3750	   7.8750	  0.0000	 
  3.9375	   4.8125	  0.0000	 
  3.9375	   7.1875	  0.0000	 
  4.5000	   5.5000	  0.0000	 
  4.5000	   6.5000	  0.0000	 
  2.8000	   0.0000	  0.0000	 
  2.8000	  12.0000	  0.0000	 
  3.1375	   0.6875	  0.0000	 
  3.1375	  11.3125	  0.0000	 
  3.4750	   1.3750	  0.0000	 
  3.4750	  10.6250	  0.0000	 
  3.8125	   2.0625	  0.0000	 
  3.8125	   9.9375	  0.0000	 
  4.1500	   2.7500	  0.0000	 
  4.1500	   9.2500	  0.0000	 
  4.4875	   3.4375	  0.0000	 
  4.4875	   8.5625	  0.0000	 
  4.8250	   4.1250	  0.0000	 
  4.8250	   7.8750	  0.0000	 
  5.1625	   4.8125	  0.0000	 
  5.1625	   7.1875	  0.0000	 
  5.5000	   5.5000	  0.0000	 
  5.5000	   6.5000	  0.0000	 
  5.6000	   0.0000	  0.0000	 
  5.6000	  12.0000	  0.0000	 
  5.7125	   0.6875	  0.0000	 
  5.7125	  11.3125	  0.0000	 
  5.8250	   1.3750	  0.0000	 
  5.8250	  10.6250	  0.0000	 
  5.9375	   2.0625	  0.0000	 
  5.9375	   9.9375	  0.0000	 
  6.0500	   2.7500	  0.0000	 
  6.0500	   9.2500	  0.0000	 
  6.1625	   3.4375	  0.0000	 
  6.1625	   8.5625	  0.0000	 
  6.2750	   4.1250	  0.0000	 
  6.2750	   7.8750	  0.0000	 
  6.3875	   4.8125	  0.0000	 
  6.3875	   7.1875	  0.0000	 
  6.5000	   5.5000	  0.0000	 
  6.5000	   6.5000	  0.0000	 
  8.4000	   0.0000	  0.0000	 
  8.4000	  12.0000	  0.0000	 
  8.2875	   0.6875	  0.0000	 
  8.2875	  11.3125	  0.0000	 
  8.1750	   1.3750	  0.0000	 
  8.1750	  10.6250	  0.0000	 
  8.0625	   2.0625	  0.0000	 
  8.0625	   9.9375	  0.0000	 
  7.9500	   2.7500	  0.0000	 
  7.9500	   9.2500	  0.0000	 
  7.8375	   3.4375	  0.0000	 
  7.8375	   8.5625	  0.0000	 
  7.7250	   4.1250	  0.0000	 
  7.7250	   7.8750	  0.0000	 
  7.6125	   4.8125	  0.0000	 
  7.6125	   7.1875	  0.0000	 
  7.5000	   5.5000	  0.0000	 
  7.5000	   6.5000	  0.0000	 
 11.2000	   0.0000	  0.0000	 
 11.2000	  12.0000	  0.0000	 
 10.8625	   0.6875	  0.0000	 
 10.8625	  11.3125	  0.0000	 
 10.5250	   1.3750	  0.0000	 
 10.5250	  10.6250	  0.0000	 
 10.1875	   2.0625	  0.0000	 
 10.1875	   9.9375	  0.0000	 
  9.8500	   2.7500	  0.0000	 
  9.8500	   9.2500	  0.0000	 
  9.5125	   3.4375	  0.0000	 
  9.5125	   8.5625	  0.0000	 
  9.1750	   4.1250	  0.0000	 
  9.1750	   7.8750	  0.0000	 
  8.8375	   4.8125	  0.0000	 
  8.8375	   7.1875	  0.0000	 
  8.5000	   5.5000	  0.0000	 
  8.5000	   6.5000	  0.0000	 
 14.0000	   0.0000	  0.0000	 
 14.0000	  12.0000	  0.0000	 
 13.4375	   0.6875	  0.0000	 
 13.4375	  11.3125	  0.0000	 
 12.8750	   1.3750	  0.0000	 
 12.8750	  10.6250	  0.0000	 
 12.3125	   2.0625	  0.0000	 
 12.3125	   9.9375	  0.0000	 
 11.7500	   2.7500	  0.0000	 
 11.7500	   9.2500	  0.0000	 
 11.1875	   3.4375	  0.0000	 
 11.1875	   8.5625	  0.0000	 
 10.6250	   4.1250	  0.0000	 
 10.6250	   7.8750	  0.0000	 
 10.0625	   4.8125	  0.0000	 
 10.0625	   7.1875	  0.0000	 
  9.5000	   5.5000	  0.0000	 
  9.5000	   6.5000	  0.0000	 
  5.5000	   5.5000	  0.0000	 
  5.5000	   6.5000	  0.0000	 
  5.5000	   5.6567	  0.0000	 
  5.5000	   6.3433	  0.0000	 
  5.5000	   5.8133	  0.0000	 
  5.5000	   6.1867	  0.0000	 
  6.5000	   5.5000	  0.0000	 
  6.5000	   6.5000	  0.0000	 
  6.5000	   5.6567	  0.0000	 
  6.5000	   6.3433	  0.0000	 
  6.5000	   5.8133	  0.0000	 
  6.5000	   6.1867	  0.0000	 
  7.5000	   5.5000	  0.0000	 
  7.5000	   6.5000	  0.0000	 
  7.5000	   5.6567	  0.0000	 
  7.5000	   6.3433	  0.0000	 
  7.5000	   5.8133	  0.0000	 
  7.5000	   6.1867	  0.0000	 
  8.5000	   5.5000	  0.0000	 
  8.5000	   6.5000	  0.0000	 
  8.5000	   5.6567	  0.0000	 
  8.5000	   6.3433	  0.0000	 
  8.5000	   5.8133	  0.0000	 
  8.5000	   6.1867	  0.0000	 
  9.5000	   5.5000	  0.0000	 
  9.5000	   6.5000	  0.0000	 
  9.5000	   5.6567	  0.0000	 
  9.5000	   6.3433	  0.0000	 
  9.5000	   5.8133	  0.0000	 
  9.5000	   6.1867	  0.0000	 
  5.5000	   5.9700	  0.0000	 
  5.5000	   6.0000	  0.0000	 
  5.5000	   6.0300	  0.0000	 
  6.5000	   5.9700	  0.0000	 
  6.5000	   6.0000	  0.0000	 
  6.5000	   6.0300	  0.0000	 
  7.5000	   5.9700	  0.0000	 
  7.5000	   6.0000	  0.0000	 
  7.5000	   6.0300	  0.0000	 
  8.5000	   5.9700	  0.0000	 
  8.5000	   6.0000	  0.0000	 
  8.5000	   6.0300	  0.0000	 
  9.5000	   5.9700	  0.0000	 
  9.5000	   6.0000	  0.0000	 
  9.5000	   6.0300	  0.0000	 
 10.0625	   5.1371	  0.0000	 
 10.0625	   6.8629	  0.0000	 
 10.0625	   5.4617	  0.0000	 
 10.0625	   6.5383	  0.0000	 
 10.0625	   5.7862	  0.0000	 
 10.0625	   6.2138	  0.0000	 
 10.6250	   4.6175	  0.0000	 
 10.6250	   7.3825	  0.0000	 
 10.6250	   5.1100	  0.0000	 
 10.6250	   6.8900	  0.0000	 
 10.6250	   5.6025	  0.0000	 
 10.6250	   6.3975	  0.0000	 
 11.1875	   4.0979	  0.0000	 
 11.1875	   7.9021	  0.0000	 
 11.1875	   4.7583	  0.0000	 
 11.1875	   7.2417	  0.0000	 
 11.1875	   5.4188	  0.0000	 
 11.1875	   6.5812	  0.0000	 
 11.7500	   3.5783	  0.0000	 
 11.7500	   8.4217	  0.0000	 
 11.7500	   4.4067	  0.0000	 
 11.7500	   7.5933	  0.0000	 
 11.7500	   5.2350	  0.0000	 
 11.7500	   6.7650	  0.0000	 
 12.3125	   3.0587	  0.0000	 
 12.3125	   8.9413	  0.0000	 
 12.3125	   4.0550	  0.0000	 
 12.3125	   7.9450	  0.0000	 
 12.3125	   5.0512	  0.0000	 
 12.3125	   6.9488	  0.0000	 
 12.8750	   2.5392	  0.0000	 
 12.8750	   9.4608	  0.0000	 
 12.8750	   3.7033	  0.0000	 
 12.8750	   8.2967	  0.0000	 
 12.8750	   4.8675	  0.0000	 
 12.8750	   7.1325	  0.0000	 
 13.4375	   2.0196	  0.0000	 
 13.4375	   9.9804	  0.0000	 
 13.4375	   3.3517	  0.0000	 
 13.4375	   8.6483	  0.0000	 
 13.4375	   4.6837	  0.0000	 
 13.4375	   7.3163	  0.0000	 
 14.0000	   1.5000	  0.0000	 
 14.0000	  10.5000	  0.0000	 
 14.0000	   3.0000	  0.0000	 
 14.0000	   9.0000	  0.0000	 
 14.0000	   4.5000	  0.0000	 
 14.0000	   7.5000	  0.0000	 
 10.0625	   6.0000	  0.0000	 
 10.6250	   6.0000	  0.0000	 
 11.1875	   6.0000	  0.0000	 
 11.7500	   6.0000	  0.0000	 
 12.3125	   6.0000	  0.0000	 
 12.8750	   6.0000	  0.0000	 
 13.4375	   6.0000	  0.0000	 
 14.0000	   6.0000	  0.0000	 
 15.8333	   0.0000	  0.0000	 
 15.8333	   1.5000	  0.0000	 
 15.8333	   3.0000	  0.0000	 
 15.8333	   4.5000	  0.0000	 
 15.8333	   6.0000	  0.0000	 
 15.8333	   7.5000	  0.0000	 
 15.8333	   9.0000	  0.0000	 
 15.8333	  10.5000	  0.0000	 
 15.8333	  12.0000	  0.0000	 
 17.6667	   0.0000	  0.0000	 
 17.6667	   1.5000	  0.0000	 
 17.6667	   3.0000	  0.0000	 
 17.6667	   4.5000	  0.0000	 
 17.6667	   6.0000	  0.0000	 
 17.6667	   7.5000	  0.0000	 
 17.6667	   9.0000	  0.0000	 
 17.6667	  10.5000	  0.0000	 
 17.6667	  12.0000	  0.0000	 
 19.5000	   0.0000	  0.0000	 
 19.5000	   1.5000	  0.0000	 
 19.5000	   3.0000	  0.0000	 
 19.5000	   4.5000	  0.0000	 
 19.5000	   6.0000	  0.0000	 
 19.5000	   7.5000	  0.0000	 
 19.5000	   9.0000	  0.0000	 
 19.5000	  10.5000	  0.0000	 
 19.5000	  12.0000	  0.0000	 

CELLS 	     528 	    2112 
       3	       30	      37	       31	
       3	      275	     271	      262	
       3	       34	      41	       74	
       3	        6	      13	       68	
       3	      194	     192	      186	
       3	      182	     188	      180	
       3	        5	      13	        6	
       3	       23	      22	       29	
       3	       91	      93	       75	
       3	       20	      13	        5	
       3	       67	      65	       81	
       3	       70	      84	       68	
       3	        0	      63	       65	
       3	       26	      25	       33	
       3	       20	       5	       12	
       3	       55	      47	       54	
       3	       20	      70	       13	
       3	       73	      28	       71	
       3	      102	     104	      122	
       3	      127	     129	      109	
       3	      140	     160	      138	
       3	      241	     235	      243	
       3	      277	     261	      263	
[...]
POINT_DATA 	     299 
VECTORS U float 
 50.0000	   0.0000	   0.0000	
 50.0000	   0.0000	   0.0000	
 50.0000	  -0.0000	   0.0000	
 50.0000	   0.0000	   0.0000	
 50.0000	  -0.0000	   0.0000	
 50.0000	   0.0000	   0.0000	
 50.0000	   0.0000	   0.0000	
 86.2204	  44.0918	   0.0000	
 37.3152	   5.3492	   0.0000	
 43.0849	  62.3923	   0.0000	
 48.6906	  78.5970	   0.0000	
 56.1251	  76.7908	   0.0000	
 49.7065	  52.7576	   0.0000	
 52.7579	  61.5330	   0.0000	
 75.6202	  75.0251	   0.0000	
 17.5773	  74.5677	   0.0000	
 44.3929	  69.5888	   0.0000	
 40.6586	  76.6449	   0.0000	
 50.7760	  85.1957	   0.0000	
 62.8022	  99.0445	   0.0000	
 43.5512	 100.1387	   0.0000	
 63.1966	  66.8162	   0.0000	
 22.3584	  74.9230	   0.0000	
 37.7698	  68.3112	   0.0000	
 44.8628	  83.7296	   0.0000	
 47.5447	  76.5236	   0.0000	
 52.8143	  88.4957	   0.0000	
 45.4556	 104.2854	   0.0000	
 38.3492	  91.5132	   0.0000	
 24.0839	  66.6917	   0.0000	
 37.8377	  77.9697	   0.0000	
 37.6750	  87.6695	   0.0000	
 44.0050	  90.6062	   0.0000	
 48.2186	  87.2102	   0.0000	
 42.1391	  86.2531	   0.0000	
 35.7695	  67.1629	   0.0000	
 28.4514	  75.9414	   0.0000	
 29.2270	  72.3948	   0.0000	
 41.4808	  71.0220	   0.0000	
 31.7225	  74.6733	   0.0000	
 56.2725	 100.1602	   0.0000	
 47.8121	  91.6794	   0.0000	
 21.9787	  69.3999	   0.0000	
 29.2718	  79.0449	   0.0000	
 32.2005	  80.1911	   0.0000	
 16.8461	 103.1108	   0.0000	
 23.6571	 125.1390	   0.0000	
 17.8040	 141.1936	   0.0000	
 75.0397	 109.5712	   0.0000	
 10.8161	  57.8477	   0.0000	
 30.1409	  76.5515	   0.0000	
 -3.4231	  86.4674	   0.0000	
  6.0166	  87.4029	   0.0000	
  1.5396	  94.5208	   0.0000	
  0.8266	  96.1587	   0.0000	
 39.6799	  87.6910	   0.0000	
  0.0000	  -0.0000	   0.0000	
 -0.0000	  -0.0000	   0.0000	
 -0.0000	  -0.0000	   0.0000	
 -0.0000	   0.0000	   0.0000	
  0.0000	   0.0000	   0.0000	
 -0.0000	   0.0000	   0.0000	
  0.0000	  -0.0000	   0.0000	
 50.0000	  50.0000	   0.0000	
 50.0000	   0.0000	   0.0000	
 96.2129	  37.9947	   0.0000	
 52.6685	  45.3951	   0.0000	
 77.2195	  55.1700	   0.0000	
 56.5901	  93.2828	   0.0000	
 55.7756	  66.0633	   0.0000	
 65.8780	 101.5583	   0.0000	
 60.5783	  63.1170	   0.0000	
 51.5958	  81.7041	   0.0000	
 35.4270	  75.5843	   0.0000	
 50.2015	  78.1577	   0.0000	
 36.0111	  65.0394	   0.0000	
 65.6810	  82.1313	   0.0000	
  5.8719	  56.1406	   0.0000	
109.6307	  68.5111	   0.0000	
 -0.0000	  -0.0000	   0.0000	
 -0.0000	   0.0000	   0.0000	
 49.3466	  50.0000	   0.0000	
 95.3466	 167.5234	   0.0000	
 52.8161	  52.4310	   0.0000	
 15.9556	 123.4782	   0.0000	
 36.8209	  63.9578	   0.0000	
 19.4857	 102.1066	   0.0000	
 56.8120	  57.9632	   0.0000	
 30.5037	  96.9010	   0.0000	
 41.3957	  49.8291	   0.0000	
 32.1513	  85.5898	   0.0000	
 49.8921	  40.6436	   0.0000	
 29.6457	  67.0393	   0.0000	
 24.3960	  37.7762	   0.0000	
 69.9739	  56.1615	   0.0000	
 66.4508	   1.3160	   0.0000	
 29.5394	   4.9928	   0.0000	
 -0.0000	   0.0000	   0.0000	
  0.0000	  -0.0000	   0.0000	
 83.4779	  50.0000	   0.0000	
-38.2407	  62.6440	   0.0000	
 46.2612	  50.8624	   0.0000	
 12.4446	  72.9182	   0.0000	
 48.4494	  47.4186	   0.0000	
  6.3812	  69.6551	   0.0000	
 57.3196	  53.3292	   0.0000	
 13.5014	  64.1013	   0.0000	
 50.7375	  57.4237	   0.0000	
 10.6706	  59.2138	   0.0000	
 57.3211	  62.1692	   0.0000	
 10.3109	  58.8268	   0.0000	
 70.5487	  60.8895	   0.0000	
  2.6447	  43.1999	   0.0000	
 90.8195	  75.7306	   0.0000	
  2.7024	  46.2460	   0.0000	
 24.1270	  73.2688	   0.0000	
 10.0917	  57.0607	   0.0000	
 45.4810	  50.0000	   0.0000	
  5.0571	  58.3708	   0.0000	
 38.1125	  50.8851	   0.0000	
  8.2532	  56.6156	   0.0000	
 45.3923	  53.6299	   0.0000	
  5.4175	  56.9817	   0.0000	
 39.4948	  55.4444	   0.0000	
  9.3768	  59.0543	   0.0000	
 47.0615	  55.8264	   0.0000	
 12.5044	  60.7908	   0.0000	
 39.9391	  55.7240	   0.0000	
 18.9400	  60.2612	   0.0000	
 43.6483	  62.0564	   0.0000	
  5.8043	  66.7233	   0.0000	
 46.3184	  76.3665	   0.0000	
 16.4801	  75.5834	   0.0000	
 24.0535	  96.9473	   0.0000	
 31.8258	  77.6927	   0.0000	
 45.4168	  50.0000	   0.0000	
  0.6495	  46.3418	   0.0000	
 44.1609	  51.6748	   0.0000	
  3.9002	  47.0226	   0.0000	
 48.8882	  53.3085	   0.0000	
  4.3318	  49.1692	   0.0000	
 43.7185	  50.7566	   0.0000	
  9.8014	  49.9154	   0.0000	
 42.4998	  49.9252	   0.0000	
 11.7508	  51.1276	   0.0000	
 41.9444	  54.1511	   0.0000	
 15.5779	  52.0244	   0.0000	
 39.1897	  54.4724	   0.0000	
 13.7210	  52.9827	   0.0000	
 45.4055	  58.4772	   0.0000	
 19.2177	  58.9005	   0.0000	
 17.7495	  56.5971	   0.0000	
 27.9426	  60.8915	   0.0000	
 59.9893	  50.0000	   0.0000	
  0.0164	  30.2194	   0.0000	
 51.6812	  45.8379	   0.0000	
  2.9874	  33.5765	   0.0000	
 44.2498	  42.4182	   0.0000	
  7.0681	  36.3915	   0.0000	
 44.1911	  45.0281	   0.0000	
  9.5339	  39.7449	   0.0000	
 38.6563	  45.4846	   0.0000	
 14.5989	  43.5944	   0.0000	
 38.5676	  49.0933	   0.0000	
 16.7329	  46.2632	   0.0000	
 35.7387	  51.4352	   0.0000	
 18.7612	  50.9475	   0.0000	
 34.2057	  54.2439	   0.0000	
 25.4913	  53.3781	   0.0000	
 20.2306	  60.2147	   0.0000	
 29.2565	  57.4737	   0.0000	
  0.0000	   0.0000	   0.0000	
  0.0000	   0.0000	   0.0000	
  0.0000	   0.0000	   0.0000	
  0.0000	   0.0000	   0.0000	
  0.0000	  -0.0000	   0.0000	
 -0.0000	   0.0000	   0.0000	
  0.0000	   0.0000	   0.0000	
  0.0000	   0.0000	   0.0000	
  9.2798	  69.2310	   0.0000	
-22.0814	  64.1231	   0.0000	
 -2.3264	  68.8515	   0.0000	
 16.2640	  62.5935	   0.0000	
  0.0000	   0.0000	   0.0000	
  0.0000	   0.0000	   0.0000	
 24.8853	  98.5795	   0.0000	
 30.5688	  82.4965	   0.0000	
 29.1543	  93.8856	   0.0000	
 31.7687	  86.4014	   0.0000	
  0.0000	   0.0000	   0.0000	
  0.0000	   0.0000	   0.0000	
 29.8658	  53.1262	   0.0000	
 20.4215	  59.5001	   0.0000	
 34.9354	  56.0686	   0.0000	
 27.9405	  56.6075	   0.0000	
  0.0000	   0.0000	   0.0000	
  0.0000	   0.0000	   0.0000	
 29.6763	  61.1721	   0.0000	
 21.8121	  58.3702	   0.0000	
 34.2702	  59.3323	   0.0000	
 31.5289	  60.7974	   0.0000	
 -0.0000	   0.0000	   0.0000	
 -0.0000	  -0.0000	   0.0000	
  0.0000	  -0.0000	   0.0000	
  1.3951	  66.2662	   0.0000	
  5.4961	  67.4083	   0.0000	
 -0.2882	  65.9451	   0.0000	
 18.5532	  89.3069	   0.0000	
 30.4798	  89.1123	   0.0000	
 14.1150	  90.6687	   0.0000	
 28.4092	  56.5347	   0.0000	
 39.0747	  54.8286	   0.0000	
 32.5836	  53.8874	   0.0000	
 22.6298	  61.0505	   0.0000	
 30.8022	  62.7230	   0.0000	
 24.7902	  61.4244	   0.0000	
 31.0841	  54.8340	   0.0000	
 25.2906	  52.6276	   0.0000	
 27.8839	  50.4048	   0.0000	
 25.8285	  50.9205	   0.0000	
 28.8021	  49.8585	   0.0000	
 27.7225	  50.5203	   0.0000	
 36.0509	  51.1376	   0.0000	
 21.2878	  50.2912	   0.0000	
 32.6348	  52.0415	   0.0000	
 25.8115	  49.7191	   0.0000	
 28.8000	  51.2035	   0.0000	
 26.1858	  50.4697	   0.0000	
 37.2541	  49.1465	   0.0000	
 17.9702	  47.3043	   0.0000	
 33.6529	  48.4741	   0.0000	
 23.6833	  47.6853	   0.0000	
 31.4334	  48.7921	   0.0000	
 25.7225	  47.5893	   0.0000	
 39.5714	  47.8686	   0.0000	
 16.7826	  42.9399	   0.0000	
 35.6320	  46.2995	   0.0000	
 21.8106	  44.9893	   0.0000	
 32.2056	  46.5741	   0.0000	
 25.0127	  44.9903	   0.0000	
 40.0473	  46.5539	   0.0000	
 15.6928	  40.1241	   0.0000	
 37.4092	  44.2147	   0.0000	
 20.2286	  41.3302	   0.0000	
 33.1877	  44.0915	   0.0000	
 24.4521	  42.1240	   0.0000	
 42.4320	  45.9342	   0.0000	
 13.0359	  37.8433	   0.0000	
 39.6986	  42.4522	   0.0000	
 19.6284	  37.6284	   0.0000	
 34.7679	  43.0280	   0.0000	
 24.3302	  39.3070	   0.0000	
 43.2115	  43.7090	   0.0000	
 10.0359	  35.2315	   0.0000	
 41.3228	  41.2611	   0.0000	
 17.5144	  35.3275	   0.0000	
 35.7410	  39.9584	   0.0000	
 24.2067	  36.3260	   0.0000	
 46.3429	  45.6711	   0.0000	
  7.8295	  30.7924	   0.0000	
 42.1627	  38.6913	   0.0000	
 15.9926	  31.5948	   0.0000	
 37.0420	  37.7361	   0.0000	
 23.2162	  33.1561	   0.0000	
 29.8287	  49.5182	   0.0000	
 29.4384	  51.0612	   0.0000	
 28.5739	  47.5163	   0.0000	
 29.9850	  45.5334	   0.0000	
 30.3151	  42.7913	   0.0000	
 30.9473	  40.6698	   0.0000	
 31.7656	  37.9368	   0.0000	
 31.9599	  33.8199	   0.0000	
 66.7249	  50.0000	   0.0000	
 57.1753	  40.8313	   0.0000	
 47.3274	  34.4728	   0.0000	
 44.0737	  26.9018	   0.0000	
 34.1523	  25.1517	   0.0000	
 26.0522	  23.3477	   0.0000	
 17.4854	  22.4071	   0.0000	
  8.6692	  21.9043	   0.0000	
  0.4198	  21.8738	   0.0000	
 78.5053	  50.0000	   0.0000	
 70.2987	  35.8355	   0.0000	
 60.2557	  18.6858	   0.0000	
 45.8528	  13.5874	   0.0000	
 35.4062	  11.2790	   0.0000	
 26.3155	  10.6271	   0.0000	
 16.9418	  10.6445	   0.0000	
  9.0752	  10.4967	   0.0000	
 -0.4078	  10.6886	   0.0000	
 99.1978	  50.0000	   0.0000	
 98.3759	  25.4022	   0.0000	
 71.4506	  13.3961	   0.0000	
 52.0203	   6.9870	   0.0000	
 38.1165	   3.3952	   0.0000	
 28.0009	   1.3110	   0.0000	
 17.3887	   0.5683	   0.0000	
  9.2186	   0.2434	   0.0000	
  0.0000	  -0.1079	   0.0000	
