# vtk DataFile Version 3.0 
Results 
ASCII 
DATASET UNSTRUCTURED_GRID 
POINTS 	    1451 float 
  0.0000	   0.6000	  0.0000	 
  0.0000	   1.2000	  0.0000	 
  0.0000	   1.8000	  0.0000	 
  0.0000	   2.4000	  0.0000	 
  0.0000	   3.0000	  0.0000	 
  0.0000	   3.6000	  0.0000	 
  0.0000	   4.2000	  0.0000	 
  0.0000	   4.8000	  0.0000	 
  0.0000	   5.4000	  0.0000	 
  0.0000	   6.0000	  0.0000	 
  0.0000	   6.6000	  0.0000	 
  0.0000	   7.2000	  0.0000	 
  0.0000	   7.8000	  0.0000	 
  0.0000	   8.4000	  0.0000	 
  0.0000	   9.0000	  0.0000	 
  0.0000	   9.6000	  0.0000	 
  0.0000	  10.2000	  0.0000	 
  0.0000	  10.8000	  0.0000	 
  0.0000	  11.4000	  0.0000	 
  0.2250	   0.8475	  0.0000	 
  0.2250	   1.4200	  0.0000	 
  0.2250	   1.9925	  0.0000	 
  0.2250	   2.5650	  0.0000	 
  0.2250	   3.1375	  0.0000	 
  0.2250	   3.7100	  0.0000	 
  0.2250	   4.2825	  0.0000	 
  0.2250	   4.8550	  0.0000	 
  0.2250	   5.4275	  0.0000	 
  0.2250	   6.0000	  0.0000	 
  0.2250	   6.5725	  0.0000	 
  0.2250	   7.1450	  0.0000	 
  0.2250	   7.7175	  0.0000	 
  0.2250	   8.2900	  0.0000	 
  0.2250	   8.8625	  0.0000	 
  0.2250	   9.4350	  0.0000	 
  0.2250	  10.0075	  0.0000	 
  0.2250	  10.5800	  0.0000	 
  0.2250	  11.1525	  0.0000	 
  0.4500	   1.0950	  0.0000	 
  0.4500	   1.6400	  0.0000	 
  0.4500	   2.1850	  0.0000	 
  0.4500	   2.7300	  0.0000	 
  0.4500	   3.2750	  0.0000	 
  0.4500	   3.8200	  0.0000	 
  0.4500	   4.3650	  0.0000	 
  0.4500	   4.9100	  0.0000	 
  0.4500	   5.4550	  0.0000	 
  0.4500	   6.0000	  0.0000	 
  0.4500	   6.5450	  0.0000	 
  0.4500	   7.0900	  0.0000	 
  0.4500	   7.6350	  0.0000	 
  0.4500	   8.1800	  0.0000	 
  0.4500	   8.7250	  0.0000	 
  0.4500	   9.2700	  0.0000	 
  0.4500	   9.8150	  0.0000	 
  0.4500	  10.3600	  0.0000	 
  0.4500	  10.9050	  0.0000	 
  0.6750	   1.3425	  0.0000	 
  0.6750	   1.8600	  0.0000	 
  0.6750	   2.3775	  0.0000	 
  0.6750	   2.8950	  0.0000	 
  0.6750	   3.4125	  0.0000	 
  0.6750	   3.9300	  0.0000	 
  0.6750	   4.4475	  0.0000	 
  0.6750	   4.9650	  0.0000	 
  0.6750	   5.4825	  0.0000	 
  0.6750	   6.0000	  0.0000	 
  0.6750	   6.5175	  0.0000	 
  0.6750	   7.0350	  0.0000	 
  0.6750	   7.5525	  0.0000	 
  0.6750	   8.0700	  0.0000	 
  0.6750	   8.5875	  0.0000	 
  0.6750	   9.1050	  0.0000	 
  0.6750	   9.6225	  0.0000	 
  0.6750	  10.1400	  0.0000	 
  0.6750	  10.6575	  0.0000	 
  0.9000	   1.5900	  0.0000	 
  0.9000	   2.0800	  0.0000	 
  0.9000	   2.5700	  0.0000	 
  0.9000	   3.0600	  0.0000	 
  0.9000	   3.5500	  0.0000	 
  0.9000	   4.0400	  0.0000	 
  0.9000	   4.5300	  0.0000	 
  0.9000	   5.0200	  0.0000	 
  0.9000	   5.5100	  0.0000	 
  0.9000	   6.0000	  0.0000	 
  0.9000	   6.4900	  0.0000	 
  0.9000	   6.9800	  0.0000	 
  0.9000	   7.4700	  0.0000	 
  0.9000	   7.9600	  0.0000	 
  0.9000	   8.4500	  0.0000	 
  0.9000	   8.9400	  0.0000	 
  0.9000	   9.4300	  0.0000	 
  0.9000	   9.9200	  0.0000	 
  0.9000	  10.4100	  0.0000	 
  1.1250	   1.8375	  0.0000	 
  1.1250	   2.3000	  0.0000	 
  1.1250	   2.7625	  0.0000	 
  1.1250	   3.2250	  0.0000	 
  1.1250	   3.6875	  0.0000	 
  1.1250	   4.1500	  0.0000	 
  1.1250	   4.6125	  0.0000	 
  1.1250	   5.0750	  0.0000	 
  1.1250	   5.5375	  0.0000	 
  1.1250	   6.0000	  0.0000	 
  1.1250	   6.4625	  0.0000	 
  1.1250	   6.9250	  0.0000	 
  1.1250	   7.3875	  0.0000	 
  1.1250	   7.8500	  0.0000	 
  1.1250	   8.3125	  0.0000	 
  1.1250	   8.7750	  0.0000	 
  1.1250	   9.2375	  0.0000	 
  1.1250	   9.7000	  0.0000	 
  1.1250	  10.1625	  0.0000	 
  1.3500	   2.0850	  0.0000	 
  1.3500	   2.5200	  0.0000	 
  1.3500	   2.9550	  0.0000	 
  1.3500	   3.3900	  0.0000	 
  1.3500	   3.8250	  0.0000	 
  1.3500	   4.2600	  0.0000	 
  1.3500	   4.6950	  0.0000	 
  1.3500	   5.1300	  0.0000	 
  1.3500	   5.5650	  0.0000	 
  1.3500	   6.0000	  0.0000	 
  1.3500	   6.4350	  0.0000	 
  1.3500	   6.8700	  0.0000	 
  1.3500	   7.3050	  0.0000	 
  1.3500	   7.7400	  0.0000	 
  1.3500	   8.1750	  0.0000	 
  1.3500	   8.6100	  0.0000	 
  1.3500	   9.0450	  0.0000	 
  1.3500	   9.4800	  0.0000	 
  1.3500	   9.9150	  0.0000	 
  1.5750	   2.3325	  0.0000	 
  1.5750	   2.7400	  0.0000	 
  1.5750	   3.1475	  0.0000	 
  1.5750	   3.5550	  0.0000	 
  1.5750	   3.9625	  0.0000	 
  1.5750	   4.3700	  0.0000	 
  1.5750	   4.7775	  0.0000	 
  1.5750	   5.1850	  0.0000	 
  1.5750	   5.5925	  0.0000	 
  1.5750	   6.0000	  0.0000	 
  1.5750	   6.4075	  0.0000	 
  1.5750	   6.8150	  0.0000	 
  1.5750	   7.2225	  0.0000	 
  1.5750	   7.6300	  0.0000	 
  1.5750	   8.0375	  0.0000	 
  1.5750	   8.4450	  0.0000	 
  1.5750	   8.8525	  0.0000	 
  1.5750	   9.2600	  0.0000	 
  1.5750	   9.6675	  0.0000	 
  1.8000	   2.5800	  0.0000	 
  1.8000	   2.9600	  0.0000	 
  1.8000	   3.3400	  0.0000	 
  1.8000	   3.7200	  0.0000	 
  1.8000	   4.1000	  0.0000	 
  1.8000	   4.4800	  0.0000	 
  1.8000	   4.8600	  0.0000	 
  1.8000	   5.2400	  0.0000	 
  1.8000	   5.6200	  0.0000	 
  1.8000	   6.0000	  0.0000	 
  1.8000	   6.3800	  0.0000	 
  1.8000	   6.7600	  0.0000	 
  1.8000	   7.1400	  0.0000	 
  1.8000	   7.5200	  0.0000	 
  1.8000	   7.9000	  0.0000	 
  1.8000	   8.2800	  0.0000	 
  1.8000	   8.6600	  0.0000	 
  1.8000	   9.0400	  0.0000	 
  1.8000	   9.4200	  0.0000	 
  2.0250	   2.8275	  0.0000	 
  2.0250	   3.1800	  0.0000	 
  2.0250	   3.5325	  0.0000	 
  2.0250	   3.8850	  0.0000	 
  2.0250	   4.2375	  0.0000	 
  2.0250	   4.5900	  0.0000	 
  2.0250	   4.9425	  0.0000	 
  2.0250	   5.2950	  0.0000	 
  2.0250	   5.6475	  0.0000	 
  2.0250	   6.0000	  0.0000	 
  2.0250	   6.3525	  0.0000	 
  2.0250	   6.7050	  0.0000	 
  2.0250	   7.0575	  0.0000	 
  2.0250	   7.4100	  0.0000	 
  2.0250	   7.7625	  0.0000	 
  2.0250	   8.1150	  0.0000	 
  2.0250	   8.4675	  0.0000	 
  2.0250	   8.8200	  0.0000	 
  2.0250	   9.1725	  0.0000	 
  2.2500	   3.0750	  0.0000	 
  2.2500	   3.4000	  0.0000	 
  2.2500	   3.7250	  0.0000	 
  2.2500	   4.0500	  0.0000	 
  2.2500	   4.3750	  0.0000	 
  2.2500	   4.7000	  0.0000	 
  2.2500	   5.0250	  0.0000	 
  2.2500	   5.3500	  0.0000	 
  2.2500	   5.6750	  0.0000	 
  2.2500	   6.0000	  0.0000	 
  2.2500	   6.3250	  0.0000	 
  2.2500	   6.6500	  0.0000	 
  2.2500	   6.9750	  0.0000	 
  2.2500	   7.3000	  0.0000	 
  2.2500	   7.6250	  0.0000	 
  2.2500	   7.9500	  0.0000	 
  2.2500	   8.2750	  0.0000	 
  2.2500	   8.6000	  0.0000	 
  2.2500	   8.9250	  0.0000	 
  2.4750	   3.3225	  0.0000	 
  2.4750	   3.6200	  0.0000	 
  2.4750	   3.9175	  0.0000	 
  2.4750	   4.2150	  0.0000	 
  2.4750	   4.5125	  0.0000	 
  2.4750	   4.8100	  0.0000	 
  2.4750	   5.1075	  0.0000	 
  2.4750	   5.4050	  0.0000	 
  2.4750	   5.7025	  0.0000	 
  2.4750	   6.0000	  0.0000	 
  2.4750	   6.2975	  0.0000	 
  2.4750	   6.5950	  0.0000	 
  2.4750	   6.8925	  0.0000	 
  2.4750	   7.1900	  0.0000	 
  2.4750	   7.4875	  0.0000	 
  2.4750	   7.7850	  0.0000	 
  2.4750	   8.0825	  0.0000	 
  2.4750	   8.3800	  0.0000	 
  2.4750	   8.6775	  0.0000	 
  2.7000	   3.5700	  0.0000	 
  2.7000	   3.8400	  0.0000	 
  2.7000	   4.1100	  0.0000	 
  2.7000	   4.3800	  0.0000	 
  2.7000	   4.6500	  0.0000	 
  2.7000	   4.9200	  0.0000	 
  2.7000	   5.1900	  0.0000	 
  2.7000	   5.4600	  0.0000	 
  2.7000	   5.7300	  0.0000	 
  2.7000	   6.0000	  0.0000	 
  2.7000	   6.2700	  0.0000	 
  2.7000	   6.5400	  0.0000	 
  2.7000	   6.8100	  0.0000	 
  2.7000	   7.0800	  0.0000	 
  2.7000	   7.3500	  0.0000	 
  2.7000	   7.6200	  0.0000	 
  2.7000	   7.8900	  0.0000	 
  2.7000	   8.1600	  0.0000	 
  2.7000	   8.4300	  0.0000	 
  2.9250	   3.8175	  0.0000	 
  2.9250	   4.0600	  0.0000	 
  2.9250	   4.3025	  0.0000	 
  2.9250	   4.5450	  0.0000	 
  2.9250	   4.7875	  0.0000	 
  2.9250	   5.0300	  0.0000	 
  2.9250	   5.2725	  0.0000	 
  2.9250	   5.5150	  0.0000	 
  2.9250	   5.7575	  0.0000	 
  2.9250	   6.0000	  0.0000	 
  2.9250	   6.2425	  0.0000	 
  2.9250	   6.4850	  0.0000	 
  2.9250	   6.7275	  0.0000	 
  2.9250	   6.9700	  0.0000	 
  2.9250	   7.2125	  0.0000	 
  2.9250	   7.4550	  0.0000	 
  2.9250	   7.6975	  0.0000	 
  2.9250	   7.9400	  0.0000	 
  2.9250	   8.1825	  0.0000	 
  3.1500	   4.0650	  0.0000	 
  3.1500	   4.2800	  0.0000	 
  3.1500	   4.4950	  0.0000	 
  3.1500	   4.7100	  0.0000	 
  3.1500	   4.9250	  0.0000	 
  3.1500	   5.1400	  0.0000	 
  3.1500	   5.3550	  0.0000	 
  3.1500	   5.5700	  0.0000	 
  3.1500	   5.7850	  0.0000	 
  3.1500	   6.0000	  0.0000	 
  3.1500	   6.2150	  0.0000	 
  3.1500	   6.4300	  0.0000	 
  3.1500	   6.6450	  0.0000	 
  3.1500	   6.8600	  0.0000	 
  3.1500	   7.0750	  0.0000	 
  3.1500	   7.2900	  0.0000	 
  3.1500	   7.5050	  0.0000	 
  3.1500	   7.7200	  0.0000	 
  3.1500	   7.9350	  0.0000	 
  3.3750	   4.3125	  0.0000	 
  3.3750	   4.5000	  0.0000	 
  3.3750	   4.6875	  0.0000	 
  3.3750	   4.8750	  0.0000	 
  3.3750	   5.0625	  0.0000	 
  3.3750	   5.2500	  0.0000	 
  3.3750	   5.4375	  0.0000	 
  3.3750	   5.6250	  0.0000	 
  3.3750	   5.8125	  0.0000	 
  3.3750	   6.0000	  0.0000	 
  3.3750	   6.1875	  0.0000	 
  3.3750	   6.3750	  0.0000	 
  3.3750	   6.5625	  0.0000	 
  3.3750	   6.7500	  0.0000	 
  3.3750	   6.9375	  0.0000	 
  3.3750	   7.1250	  0.0000	 
  3.3750	   7.3125	  0.0000	 
  3.3750	   7.5000	  0.0000	 
  3.3750	   7.6875	  0.0000	 
  3.6000	   4.5600	  0.0000	 
  3.6000	   4.7200	  0.0000	 
  3.6000	   4.8800	  0.0000	 
  3.6000	   5.0400	  0.0000	 
  3.6000	   5.2000	  0.0000	 
  3.6000	   5.3600	  0.0000	 
  3.6000	   5.5200	  0.0000	 
  3.6000	   5.6800	  0.0000	 
  3.6000	   5.8400	  0.0000	 
  3.6000	   6.0000	  0.0000	 
  3.6000	   6.1600	  0.0000	 
  3.6000	   6.3200	  0.0000	 
  3.6000	   6.4800	  0.0000	 
  3.6000	   6.6400	  0.0000	 
  3.6000	   6.8000	  0.0000	 
  3.6000	   6.9600	  0.0000	 
  3.6000	   7.1200	  0.0000	 
  3.6000	   7.2800	  0.0000	 
  3.6000	   7.4400	  0.0000	 
  3.8250	   4.8075	  0.0000	 
  3.8250	   4.9400	  0.0000	 
  3.8250	   5.0725	  0.0000	 
  3.8250	   5.2050	  0.0000	 
  3.8250	   5.3375	  0.0000	 
  3.8250	   5.4700	  0.0000	 
  3.8250	   5.6025	  0.0000	 
[...]
POINT_DATA 	    1451 
VECTORS U float 
 50.0000	   0.0000	   0.0000	
 50.0000	   0.0000	   0.0000	
 50.0000	   0.0000	   0.0000	
 50.0000	   0.0000	   0.0000	
 50.0000	  -0.0000	   0.0000	
 50.0000	  -0.0000	   0.0000	
 50.0000	   0.0000	   0.0000	
 50.0000	  -0.0000	   0.0000	
 50.0000	  -0.0000	   0.0000	
 50.0000	   0.0000	   0.0000	
 50.0000	  -0.0000	   0.0000	
 50.0000	  -0.0000	   0.0000	
 50.0000	   0.0000	   0.0000	
 50.0000	   0.0000	   0.0000	
 50.0000	  -0.0000	   0.0000	
 50.0000	  -0.0000	   0.0000	
 50.0000	   0.0000	   0.0000	
 50.0000	   0.0000	   0.0000	
 50.0000	  -0.0000	   0.0000	
 49.1186	   6.0448	   0.0000	
 50.3207	   7.4364	   0.0000	
 50.2054	  11.7068	   0.0000	
 49.8168	  18.7763	   0.0000	
 50.0436	  10.9750	   0.0000	
 49.6101	  21.2814	   0.0000	
 49.2705	  25.8800	   0.0000	
 49.1300	  32.1562	   0.0000	
 49.7706	  35.6296	   0.0000	
 50.0794	  37.1550	   0.0000	
 49.6691	  36.6761	   0.0000	
 50.8864	  35.9250	   0.0000	
 50.4198	  30.4026	   0.0000	
 50.4877	  26.9359	   0.0000	
 50.2466	  24.9780	   0.0000	
 49.9786	  17.0141	   0.0000	
 50.1176	  19.7927	   0.0000	
 49.1837	  17.2518	   0.0000	
 50.5222	  16.6404	   0.0000	
 49.2704	  12.0176	   0.0000	
 46.1014	  20.2181	   0.0000	
 44.5472	  33.3844	   0.0000	
 56.1670	  24.4937	   0.0000	
 42.5230	  36.3334	   0.0000	
 46.5427	  40.3010	   0.0000	
 45.1677	  52.1589	   0.0000	
 46.7887	  60.6884	   0.0000	
 48.4636	  64.8023	   0.0000	
 49.1840	  67.0717	   0.0000	
 50.3795	  68.3124	   0.0000	
 51.1408	  67.5572	   0.0000	
 54.6854	  63.0765	   0.0000	
 52.8967	  49.9162	   0.0000	
 50.5343	  48.5158	   0.0000	
 55.8790	  45.6127	   0.0000	
 47.7384	  34.6674	   0.0000	
 52.5140	  36.6651	   0.0000	
 50.9973	  35.1904	   0.0000	
 43.3563	  21.2176	   0.0000	
 39.5752	  44.5031	   0.0000	
 53.7790	  36.8354	   0.0000	
 46.2105	  49.6566	   0.0000	
 43.8377	  49.8617	   0.0000	
 40.8016	  60.7343	   0.0000	
 41.9899	  68.5656	   0.0000	
 45.3942	  71.2240	   0.0000	
 47.6603	  73.6730	   0.0000	
 47.6585	  76.4169	   0.0000	
 49.8768	  81.0573	   0.0000	
 51.0598	  81.3477	   0.0000	
 55.4299	  84.3791	   0.0000	
 60.1915	  80.2574	   0.0000	
 51.6296	  67.0012	   0.0000	
 54.0801	  66.0392	   0.0000	
 56.7844	  64.2944	   0.0000	
 49.4150	  53.2626	   0.0000	
 49.4109	  52.7117	   0.0000	
 24.6181	  46.7680	   0.0000	
 49.1789	  46.0091	   0.0000	
 47.2960	  57.3787	   0.0000	
 43.5967	  63.1598	   0.0000	
 38.9702	  62.3090	   0.0000	
 38.7536	  64.9973	   0.0000	
 41.4001	  65.9452	   0.0000	
 44.7451	  68.6210	   0.0000	
 46.6831	  70.3448	   0.0000	
 47.2203	  71.6786	   0.0000	
 47.5328	  71.9264	   0.0000	
 50.3146	  77.6500	   0.0000	
 53.1216	  77.9526	   0.0000	
 59.8136	  81.8073	   0.0000	
 59.5533	  83.2939	   0.0000	
 52.5892	  79.9249	   0.0000	
 58.0822	  82.8068	   0.0000	
 54.7445	  80.1919	   0.0000	
 54.0565	  67.9474	   0.0000	
 39.7646	  50.8421	   0.0000	
 43.6637	  65.2725	   0.0000	
 41.0442	  71.1664	   0.0000	
 45.5275	  71.6049	   0.0000	
 38.1259	  67.6221	   0.0000	
 39.1514	  66.0487	   0.0000	
 40.7778	  67.9486	   0.0000	
 44.3159	  68.9929	   0.0000	
 45.8304	  70.9415	   0.0000	
 46.2754	  72.7763	   0.0000	
 47.9110	  74.5905	   0.0000	
 47.2394	  73.3434	   0.0000	
 52.4097	  79.7204	   0.0000	
 57.1011	  78.6363	   0.0000	
 58.5309	  84.0246	   0.0000	
 52.3908	  91.6619	   0.0000	
 53.6314	  92.2284	   0.0000	
 58.0913	  97.3653	   0.0000	
 60.7611	  98.6964	   0.0000	
 36.1227	  69.7110	   0.0000	
 42.0081	  77.5364	   0.0000	
 42.9840	  73.3211	   0.0000	
 45.5466	  75.0940	   0.0000	
 39.3021	  68.9288	   0.0000	
 38.8417	  69.4534	   0.0000	
 41.1712	  69.2039	   0.0000	
 43.5032	  71.2973	   0.0000	
 45.1540	  73.2063	   0.0000	
 44.8968	  75.7155	   0.0000	
 46.7922	  78.6952	   0.0000	
 47.9516	  80.4924	   0.0000	
 47.9712	  79.4775	   0.0000	
 56.4132	  85.6244	   0.0000	
 55.7381	  86.1094	   0.0000	
 49.8629	  95.0927	   0.0000	
 51.7237	  99.2984	   0.0000	
 52.9818	 104.1875	   0.0000	
 52.6925	 115.1965	   0.0000	
 36.6314	  64.3558	   0.0000	
 44.9909	  66.3074	   0.0000	
 43.0004	  65.0920	   0.0000	
 45.6551	  67.2559	   0.0000	
 38.5904	  65.7745	   0.0000	
 39.6562	  64.8570	   0.0000	
 40.1992	  67.0656	   0.0000	
 42.6325	  69.7772	   0.0000	
 43.6168	  72.6537	   0.0000	
 44.2289	  74.0698	   0.0000	
 45.3596	  74.8847	   0.0000	
 46.5934	  77.6610	   0.0000	
 48.7000	  79.4997	   0.0000	
 51.1330	  76.7152	   0.0000	
 55.9772	  84.0108	   0.0000	
 48.6668	  85.8525	   0.0000	
 48.5719	  87.4325	   0.0000	
 49.9561	  91.3804	   0.0000	
 46.0088	 100.7759	   0.0000	
 40.6060	  59.7183	   0.0000	
 44.6454	  63.9772	   0.0000	
 42.4552	  63.4662	   0.0000	
 43.1646	  69.5313	   0.0000	
 39.3993	  65.8443	   0.0000	
 38.3960	  67.4818	   0.0000	
 39.1743	  69.7394	   0.0000	
 41.1872	  72.3722	   0.0000	
 42.8491	  74.1494	   0.0000	
 42.9437	  76.2819	   0.0000	
 44.9973	  78.4550	   0.0000	
 44.8017	  78.5469	   0.0000	
 47.1510	  81.7088	   0.0000	
 52.5492	  81.8256	   0.0000	
 50.4563	  79.6281	   0.0000	
 50.9498	  89.3199	   0.0000	
 48.5368	  85.6733	   0.0000	
 47.4468	  85.9556	   0.0000	
 42.9810	  94.5006	   0.0000	
 40.9340	  58.7049	   0.0000	
 43.2566	  63.1652	   0.0000	
 39.0337	  65.3072	   0.0000	
 43.7651	  67.5109	   0.0000	
 37.8634	  66.6366	   0.0000	
 37.4321	  68.1346	   0.0000	
 37.9807	  70.1539	   0.0000	
 40.3483	  72.2197	   0.0000	
 41.3869	  74.8401	   0.0000	
 41.5108	  77.2332	   0.0000	
 43.7398	  79.3999	   0.0000	
 44.8042	  81.1456	   0.0000	
 44.7110	  81.2233	   0.0000	
 50.9601	  82.7795	   0.0000	
 53.0308	  83.6992	   0.0000	
 44.7764	  84.1392	   0.0000	
 51.5841	  90.0157	   0.0000	
 49.0092	  87.0148	   0.0000	
 40.5156	  91.5515	   0.0000	
 39.5918	  59.3085	   0.0000	
 39.3844	  64.9563	   0.0000	
 40.3734	  63.6501	   0.0000	
 41.3360	  67.9463	   0.0000	
 36.5134	  67.4709	   0.0000	
 36.3344	  68.8984	   0.0000	
 37.0393	  70.7793	   0.0000	
 38.6957	  73.7274	   0.0000	
 39.8466	  76.3662	   0.0000	
 40.3439	  77.9437	   0.0000	
 42.5304	  79.1415	   0.0000	
 43.3530	  80.4072	   0.0000	
 44.8346	  82.1271	   0.0000	
 48.3785	  79.8613	   0.0000	
 51.5180	  82.1429	   0.0000	
 49.0521	  85.1512	   0.0000	
 43.1626	  83.4691	   0.0000	
 52.5820	  88.7532	   0.0000	
 44.4613	  89.9975	   0.0000	
 35.8503	  61.8289	   0.0000	
 41.3945	  63.2974	   0.0000	
 37.5577	  63.5396	   0.0000	
 39.1996	  67.8908	   0.0000	
 35.1987	  67.5042	   0.0000	
 35.1810	  69.2556	   0.0000	
 35.4838	  71.3322	   0.0000	
 37.0279	  73.6649	   0.0000	
 38.6149	  75.6539	   0.0000	
 38.4835	  78.2077	   0.0000	
 42.0191	  80.7521	   0.0000	
 42.3080	  80.9978	   0.0000	
 43.5930	  82.3247	   0.0000	
 49.0728	  81.5981	   0.0000	
 48.4715	  80.8181	   0.0000	
 48.4180	  85.6116	   0.0000	
 47.2463	  87.2684	   0.0000	
 42.7521	  86.3898	   0.0000	
 49.6113	  92.9139	   0.0000	
 39.8184	  60.8977	   0.0000	
 38.0027	  63.8818	   0.0000	
 35.3249	  65.3326	   0.0000	
 36.8326	  69.2222	   0.0000	
 33.8033	  69.5188	   0.0000	
 33.7737	  71.2207	   0.0000	
 34.1473	  73.1043	   0.0000	
 35.8050	  75.1586	   0.0000	
 36.4606	  78.1050	   0.0000	
 35.9625	  81.3578	   0.0000	
 39.7469	  84.2444	   0.0000	
 42.1102	  86.2465	   0.0000	
 42.5176	  86.1302	   0.0000	
 47.5473	  84.8774	   0.0000	
 49.2476	  86.1084	   0.0000	
 44.4831	  88.2767	   0.0000	
 45.6684	  93.0116	   0.0000	
 48.7287	  91.2741	   0.0000	
 38.4799	  90.9475	   0.0000	
 35.8355	  57.6180	   0.0000	
 33.4744	  60.0064	   0.0000	
 32.8567	  62.8509	   0.0000	
 34.1174	  67.9939	   0.0000	
 31.7625	  69.7802	   0.0000	
 32.4766	  71.8788	   0.0000	
 32.2976	  74.1396	   0.0000	
 33.2131	  77.7708	   0.0000	
 33.2656	  81.8868	   0.0000	
 36.5147	  81.2912	   0.0000	
 37.7724	  80.1428	   0.0000	
 39.6883	  82.0146	   0.0000	
 42.9035	  84.3009	   0.0000	
 46.8991	  82.0783	   0.0000	
 46.6259	  83.9066	   0.0000	
 45.6508	  87.8258	   0.0000	
 40.6837	  89.7676	   0.0000	
 49.9292	  86.3511	   0.0000	
 50.8818	  79.6783	   0.0000	
 31.1486	  60.1899	   0.0000	
 29.2181	  62.2357	   0.0000	
 28.5204	  65.8840	   0.0000	
 30.9790	  69.5801	   0.0000	
 29.4773	  70.8966	   0.0000	
 29.9495	  73.8438	   0.0000	
 29.3430	  76.5546	   0.0000	
 29.0719	  79.7252	   0.0000	
 34.3725	  79.2948	   0.0000	
 33.2038	  81.3473	   0.0000	
 39.5347	  85.0918	   0.0000	
 36.9662	  82.9890	   0.0000	
 40.1324	  84.7763	   0.0000	
 46.8901	  84.1681	   0.0000	
 43.2359	  87.0926	   0.0000	
 42.5848	  92.2475	   0.0000	
 42.6729	  95.2006	   0.0000	
 47.7779	  87.3161	   0.0000	
 56.9037	  78.7247	   0.0000	
 26.3235	  58.2241	   0.0000	
 22.7811	  64.3533	   0.0000	
 27.0596	  68.2865	   0.0000	
 28.4168	  72.1359	   0.0000	
 26.5310	  74.1012	   0.0000	
 27.2385	  76.4345	   0.0000	
 26.7683	  77.6513	   0.0000	
 32.2870	  75.3319	   0.0000	
 32.6937	  75.7458	   0.0000	
 26.2307	  81.6687	   0.0000	
 34.1765	  87.9356	   0.0000	
 39.5715	  91.8057	   0.0000	
 38.7073	  89.9297	   0.0000	
 41.6972	  91.0366	   0.0000	
 41.8211	  98.1438	   0.0000	
 36.6399	 103.5599	   0.0000	
 41.7024	 102.1070	   0.0000	
 55.6183	  91.0200	   0.0000	
 55.4910	  79.7581	   0.0000	
 19.7010	  54.3049	   0.0000	
 22.6169	  57.7465	   0.0000	
 13.0105	  67.2911	   0.0000	
 21.9931	  80.3771	   0.0000	
 23.7854	  85.5235	   0.0000	
 26.1023	  87.9688	   0.0000	
 32.4482	  86.3087	   0.0000	
 32.2227	  86.2458	   0.0000	
 23.3646	  93.0190	   0.0000	
 29.6730	  90.9837	   0.0000	
 25.8833	  88.1918	   0.0000	
 30.9987	  95.2079	   0.0000	
 41.9369	 100.1651	   0.0000	
 36.5328	  98.3311	   0.0000	
 31.9160	 105.5252	   0.0000	
 34.8844	 108.4008	   0.0000	
 50.4881	  97.1350	   0.0000	
 48.3844	  85.9947	   0.0000	
 66.3189	  72.9455	   0.0000	
  3.2574	  47.2670	   0.0000	
 -2.2957	  54.7940	   0.0000	
 11.9188	  63.2412	   0.0000	
 15.7436	  69.2973	   0.0000	
 21.6145	  73.5245	   0.0000	
 32.7749	  74.5280	   0.0000	
 31.9097	  74.5456	   0.0000	
 17.8959	  79.7657	   0.0000	
 26.8929	  79.7001	   0.0000	
 20.8294	  83.9027	   0.0000	
 30.8047	  90.2161	   0.0000	
 16.5094	  89.1210	   0.0000	
 26.5657	  97.8647	   0.0000	
 43.2858	 101.9433	   0.0000	
 23.2974	 111.2354	   0.0000	
 32.6881	 117.3716	   0.0000	
 34.8122	 110.6264	   0.0000	
 64.9381	 103.2083	   0.0000	
 73.5291	  85.7789	   0.0000	
 -4.8293	  60.5132	   0.0000	
  3.6557	  68.8587	   0.0000	
  8.5337	  74.8207	   0.0000	
 22.7497	  79.5111	   0.0000	
 32.3157	  83.6199	   0.0000	
 27.5098	  83.1377	   0.0000	
 11.2997	  91.4127	   0.0000	
 20.2236	  95.2623	   0.0000	
 17.1327	 101.6041	   0.0000	
 12.9284	 106.5754	   0.0000	
 15.4931	 110.9853	   0.0000	
 21.6799	 119.0391	   0.0000	
  2.4709	 123.9137	   0.0000	
 20.2658	 129.8235	   0.0000	
 14.2758	 144.3836	   0.0000	
  8.0130	 156.0265	   0.0000	
 26.3922	 149.6476	   0.0000	
 56.9441	 131.7501	   0.0000	
 68.4684	 106.1430	   0.0000	
 -2.5450	  30.7321	   0.0000	
  4.2404	  36.5680	   0.0000	
 14.8652	  43.5531	   0.0000	
 25.3928	  51.3586	   0.0000	
  0.5425	  60.1146	   0.0000	
  0.5173	  60.8967	   0.0000	
  8.0970	  65.0336	   0.0000	
  0.6337	  68.8331	   0.0000	
  6.3546	  72.3352	   0.0000	
  0.4628	  75.2639	   0.0000	
  5.8934	  78.1519	   0.0000	
  0.6949	  81.3307	   0.0000	
  6.6648	  84.7062	   0.0000	
 -0.9690	  87.3055	   0.0000	
 -0.0899	  86.5734	   0.0000	
 -6.3413	  91.2744	   0.0000	
 -0.3093	  89.4411	   0.0000	
 22.1960	  85.4819	   0.0000	
 58.1672	  75.5483	   0.0000	
 -0.0000	  -0.0000	   0.0000	
  0.0000	   0.0000	   0.0000	
 -0.0000	   0.0000	   0.0000	
 -0.0000	   0.0000	   0.0000	
  0.0000	  -0.0000	   0.0000	
 -0.0000	   0.0000	   0.0000	
  0.0000	   0.0000	   0.0000	
  0.0000	  -0.0000	   0.0000	
 -0.0000	  -0.0000	   0.0000	
  0.0000	   0.0000	   0.0000	
  0.0000	   0.0000	   0.0000	
  0.0000	  -0.0000	   0.0000	
 -0.0000	   0.0000	   0.0000	
 -0.0000	   0.0000	   0.0000	
 -0.0000	  -0.0000	   0.0000	
 -0.0000	  -0.0000	   0.0000	
  0.0000	  -0.0000	   0.0000	
 -0.0000	  -0.0000	   0.0000	
  0.0000	   0.0000	   0.0000	
 50.0000	  50.0000	   0.0000	
 50.0000	  -0.0000	   0.0000	
 68.3888	  50.0818	   0.0000	
 49.9941	  16.1846	   0.0000	
 86.2943	  50.0701	   0.0000	
 49.8818	  32.5286	   0.0000	
 82.6055	  55.0875	   0.0000	
 52.5518	  49.2855	   0.0000	
 80.0342	  59.6023	   0.0000	
 54.7902	  66.3088	   0.0000	
 51.3744	  79.6329	   0.0000	
 49.7996	  78.9232	   0.0000	
 49.2755	  78.1615	   0.0000	
 77.3427	 104.3926	   0.0000	
 45.2916	  76.7020	   0.0000	
 66.8474	  93.1714	   0.0000	
 46.3149	  72.4692	   0.0000	
 56.9160	  83.7714	   0.0000	
 49.2058	  67.7701	   0.0000	
 54.3848	  79.6999	   0.0000	
 47.8630	  66.0080	   0.0000	
 51.7654	  76.1713	   0.0000	
 44.2196	  65.2611	   0.0000	
 56.5717	  76.8891	   0.0000	
 38.7774	  64.7328	   0.0000	
 63.3999	  77.6069	   0.0000	
 41.5887	  59.1157	   0.0000	
 49.2147	  67.8912	   0.0000	
 34.6455	  57.3503	   0.0000	
 60.1517	  69.5965	   0.0000	
 27.5376	  54.9680	   0.0000	
 66.6618	  68.2765	   0.0000	
 17.5725	  52.5284	   0.0000	
 68.7874	  63.6374	   0.0000	
 18.6094	  41.2672	   0.0000	
 78.4509	  60.4885	   0.0000	
-19.4264	  49.6156	   0.0000	
110.7432	  69.1011	   0.0000	
 -9.9517	  23.9018	   0.0000	
107.7185	  49.0918	   0.0000	
 -0.0000	   0.0000	   0.0000	
 -0.0000	  -0.0000	   0.0000	
 50.4563	  50.0000	   0.0000	
 87.3931	 156.3045	   0.0000	
 47.9395	  49.4096	   0.0000	
 51.9278	 139.0590	   0.0000	
 45.9504	  48.9576	   0.0000	
 35.4991	 123.5784	   0.0000	
 45.6427	  47.5435	   0.0000	
 24.7433	 110.4080	   0.0000	
 43.3877	  47.2014	   0.0000	
 25.4717	 104.6960	   0.0000	
 43.6856	  45.9222	   0.0000	
 24.5854	  99.8854	   0.0000	
 43.7725	  45.4789	   0.0000	
 25.7379	  96.5842	   0.0000	
 44.5812	  44.4125	   0.0000	
 25.4887	  92.6894	   0.0000	
 43.4960	  43.9541	   0.0000	
 28.1820	  89.5758	   0.0000	
 40.1592	  44.3338	   0.0000	
 31.5377	  86.3336	   0.0000	
 40.5115	  42.8568	   0.0000	
 36.5486	  83.6555	   0.0000	
 46.2057	  39.4356	   0.0000	
 27.2761	  75.6007	   0.0000	
 40.9535	  39.7736	   0.0000	
 36.3903	  74.2949	   0.0000	
 40.7994	  36.8999	   0.0000	
 38.8668	  69.1001	   0.0000	
 38.7308	  33.0297	   0.0000	
 40.2440	  63.1330	   0.0000	
 41.2050	  27.4118	   0.0000	
 45.4446	  55.1549	   0.0000	
 23.5656	  26.5482	   0.0000	
 64.4113	  50.3934	   0.0000	
 18.4566	  19.0859	   0.0000	
 68.9107	  38.3819	   0.0000	
 36.0317	   2.7052	   0.0000	
 61.5268	  21.5079	   0.0000	
 25.6101	   0.4878	   0.0000	
 -2.1052	  -1.4319	   0.0000	
 -0.0000	   0.0000	   0.0000	
 -0.0000	  -0.0000	   0.0000	
 55.9743	  50.0000	   0.0000	
-44.0894	  67.5150	   0.0000	
 51.7982	  50.7870	   0.0000	
-12.3639	  69.0546	   0.0000	
 49.3242	  51.1319	   0.0000	
  2.6840	  68.9586	   0.0000	
 46.7602	  51.9692	   0.0000	
 10.2011	  68.5370	   0.0000	
 47.0384	  52.2136	   0.0000	
 12.1928	  67.2047	   0.0000	
 47.5723	  52.6470	   0.0000	
 12.5152	  65.9488	   0.0000	
 47.0763	  53.4082	   0.0000	
 13.9146	  64.4562	   0.0000	
 46.7390	  53.3209	   0.0000	
 15.8146	  62.6213	   0.0000	
 46.3128	  54.1176	   0.0000	
 17.3024	  61.0415	   0.0000	
 45.2864	  54.7337	   0.0000	
 20.3510	  59.9630	   0.0000	
 50.7639	  54.4337	   0.0000	
 15.3727	  58.2019	   0.0000	
 50.8328	  54.8390	   0.0000	
 17.1041	  55.4988	   0.0000	
 54.9970	  54.9008	   0.0000	
 17.8300	  52.7477	   0.0000	
 57.0652	  55.5685	   0.0000	
  9.3455	  49.0858	   0.0000	
 60.4040	  55.7733	   0.0000	
 13.4292	  46.3006	   0.0000	
 61.7999	  53.0856	   0.0000	
 17.5337	  40.1279	   0.0000	
 60.3777	  51.8397	   0.0000	
 22.4988	  35.6192	   0.0000	
 66.0613	  51.9187	   0.0000	
 26.5118	  31.5783	   0.0000	
 63.2169	  50.7004	   0.0000	
  1.1463	  31.6249	   0.0000	
 38.7597	  50.1545	   0.0000	
  2.4485	  37.0241	   0.0000	
 28.3586	  47.5127	   0.0000	
 -0.2721	  39.5178	   0.0000	
 44.5554	  50.0000	   0.0000	
 11.5334	  54.4966	   0.0000	
 45.4983	  50.8674	   0.0000	
 -2.3654	  59.6772	   0.0000	
 43.6987	  51.0982	   0.0000	
  1.5303	  60.2611	   0.0000	
 41.9712	  51.1159	   0.0000	
  5.1961	  59.7140	   0.0000	
 42.0520	  51.6024	   0.0000	
  6.4437	  59.6274	   0.0000	
 42.4034	  52.1320	   0.0000	
  7.1515	  59.6749	   0.0000	
 40.8156	  52.2464	   0.0000	
 10.1868	  58.9161	   0.0000	
 41.3628	  53.1024	   0.0000	
  8.7869	  59.8635	   0.0000	
 42.6378	  53.7091	   0.0000	
 11.1111	  59.1074	   0.0000	
 41.9464	  54.3944	   0.0000	
 13.0621	  58.8055	   0.0000	
 43.7503	  55.7066	   0.0000	
 14.1485	  59.0630	   0.0000	
 43.4304	  56.4698	   0.0000	
 12.8807	  59.0187	   0.0000	
 44.5484	  58.3743	   0.0000	
  7.8046	  60.8867	   0.0000	
 46.2714	  60.7432	   0.0000	
 11.6695	  61.3993	   0.0000	
 46.0231	  62.2050	   0.0000	
 10.4537	  61.6121	   0.0000	
 53.1430	  67.2394	   0.0000	
  6.5065	  63.7179	   0.0000	
 50.5274	  69.8549	   0.0000	
  9.6103	  63.2072	   0.0000	
 49.4540	  73.4751	   0.0000	
 14.5465	  62.0275	   0.0000	
 50.9834	  77.4259	   0.0000	
 19.4812	  59.5754	   0.0000	
 42.6240	  82.5216	   0.0000	
 19.3952	  65.9116	   0.0000	
 22.3102	  83.0497	   0.0000	
 21.8074	  70.3179	   0.0000	
 45.0930	  50.0000	   0.0000	
 -1.2515	  45.7164	   0.0000	
 44.8844	  49.8428	   0.0000	
  2.4470	  44.8960	   0.0000	
 44.0543	  49.8570	   0.0000	
  5.1112	  44.1629	   0.0000	
 42.7997	  49.5586	   0.0000	
  8.0097	  43.3741	   0.0000	
 42.8667	  49.7887	   0.0000	
  6.7377	  45.0156	   0.0000	
 42.8031	  49.8503	   0.0000	
  5.5474	  47.0010	   0.0000	
 41.6172	  49.3620	   0.0000	
  7.0393	  47.2939	   0.0000	
 41.5561	  49.5413	   0.0000	
  7.9282	  48.3266	   0.0000	
 40.9369	  49.5440	   0.0000	
 10.0305	  48.5107	   0.0000	
 39.8221	  49.0334	   0.0000	
 11.2106	  48.9512	   0.0000	
 41.6947	  50.2382	   0.0000	
  9.7445	  50.7877	   0.0000	
 37.9592	  49.0473	   0.0000	
 15.0007	  49.3097	   0.0000	
 39.4347	  50.6389	   0.0000	
 15.1073	  50.2945	   0.0000	
 39.4362	  51.3296	   0.0000	
 13.3148	  52.0311	   0.0000	
 39.6493	  53.0501	   0.0000	
 14.7643	  53.8531	   0.0000	
 38.8519	  53.8649	   0.0000	
 14.6396	  54.9911	   0.0000	
 38.2160	  56.1766	   0.0000	
 14.8541	  57.4420	   0.0000	
 39.5970	  60.9021	   0.0000	
 14.3158	  60.7614	   0.0000	
 35.4220	  63.0294	   0.0000	
 21.4929	  60.7740	   0.0000	
 40.9453	  69.2912	   0.0000	
 17.0731	  64.2933	   0.0000	
 20.9317	  67.3884	   0.0000	
 38.2725	  58.3664	   0.0000	
 51.2269	  50.0000	   0.0000	
  0.7708	  30.7340	   0.0000	
 48.4975	  49.4209	   0.0000	
  2.1964	  32.1266	   0.0000	
 45.4910	  48.7780	   0.0000	
  3.5840	  33.5320	   0.0000	
 44.5775	  48.6855	   0.0000	
  4.8619	  34.9331	   0.0000	
 45.4080	  49.1856	   0.0000	
  7.2190	  35.9586	   0.0000	
 45.3475	  49.3319	   0.0000	
  7.9183	  37.8893	   0.0000	
 42.1663	  47.2505	   0.0000	
  8.9177	  38.9651	   0.0000	
 41.6885	  47.4016	   0.0000	
 10.1610	  39.1974	   0.0000	
 41.6073	  47.9196	   0.0000	
 10.8100	  40.0104	   0.0000	
 40.4716	  47.9809	   0.0000	
 12.1587	  41.3085	   0.0000	
 40.1441	  48.2310	   0.0000	
 13.6826	  42.4491	   0.0000	
 39.0514	  48.1906	   0.0000	
 15.0504	  43.4171	   0.0000	
 38.8692	  48.8103	   0.0000	
 15.5057	  45.3173	   0.0000	
 38.2843	  49.5247	   0.0000	
 15.6160	  47.2972	   0.0000	
 38.1109	  48.9560	   0.0000	
 16.1586	  47.2295	   0.0000	
 36.8530	  49.3020	   0.0000	
 16.4957	  48.1195	   0.0000	
 34.7877	  49.0810	   0.0000	
 23.0614	  46.5109	   0.0000	
 37.0008	  52.0883	   0.0000	
 17.9020	  52.4002	   0.0000	
 33.6042	  51.3855	   0.0000	
 21.9058	  52.3953	   0.0000	
 30.5853	  51.5808	   0.0000	
 23.3786	  54.3963	   0.0000	
 30.9912	  56.1897	   0.0000	
 20.9727	  57.6652	   0.0000	
  0.0000	   0.0000	   0.0000	
  0.0000	   0.0000	   0.0000	
 -0.0000	   0.0000	   0.0000	
  0.0000	  -0.0000	   0.0000	
 -0.0000	   0.0000	   0.0000	
  0.0000	   0.0000	   0.0000	
 -0.0000	   0.0000	   0.0000	
 -0.0000	  -0.0000	   0.0000	
 -0.0000	  -0.0000	   0.0000	
 -0.0000	   0.0000	   0.0000	
 -0.0000	  -0.0000	   0.0000	
 -0.0000	  -0.0000	   0.0000	
 -0.0000	   0.0000	   0.0000	
 -0.0000	  -0.0000	   0.0000	