# vtk DataFile Version 3.0 
Results 
ASCII 
DATASET UNSTRUCTURED_GRID 
POINTS 	    1451 float 
  0.0000	   0.6000	  0.0000	 
  0.0000	   1.2000	  0.0000	 
  0.0000	   1.8000	  0.0000	 
  0.0000	   2.4000	  0.0000	 
  0.0000	   3.0000	  0.0000	 
  0.0000	   3.6000	  0.0000	 
  0.0000	   4.2000	  0.0000	 
  0.0000	   4.8000	  0.0000	 
  0.0000	   5.4000	  0.0000	 
  0.0000	   6.0000	  0.0000	 
  0.0000	   6.6000	  0.0000	 
  0.0000	   7.2000	  0.0000	 
  0.0000	   7.8000	  0.0000	 
  0.0000	   8.4000	  0.0000	 
  0.0000	   9.0000	  0.0000	 
  0.0000	   9.6000	  0.0000	 
  0.0000	  10.2000	  0.0000	 
  0.0000	  10.8000	  0.0000	 
  0.0000	  11.4000	  0.0000	 
  0.2250	   0.8475	  0.0000	 
  0.2250	   1.4200	  0.0000	 
  0.2250	   1.9925	  0.0000	 
  0.2250	   2.5650	  0.0000	 
  0.2250	   3.1375	  0.0000	 
  0.2250	   3.7100	  0.0000	 
  0.2250	   4.2825	  0.0000	 
  0.2250	   4.8550	  0.0000	 
  0.2250	   5.4275	  0.0000	 
  0.2250	   6.0000	  0.0000	 
  0.2250	   6.5725	  0.0000	 
  0.2250	   7.1450	  0.0000	 
  0.2250	   7.7175	  0.0000	 
  0.2250	   8.2900	  0.0000	 
  0.2250	   8.8625	  0.0000	 
  0.2250	   9.4350	  0.0000	 
  0.2250	  10.0075	  0.0000	 
  0.2250	  10.5800	  0.0000	 
  0.2250	  11.1525	  0.0000	 
  0.4500	   1.0950	  0.0000	 
  0.4500	   1.6400	  0.0000	 
  0.4500	   2.1850	  0.0000	 
  0.4500	   2.7300	  0.0000	 
  0.4500	   3.2750	  0.0000	 
  0.4500	   3.8200	  0.0000	 
  0.4500	   4.3650	  0.0000	 
  0.4500	   4.9100	  0.0000	 
  0.4500	   5.4550	  0.0000	 
  0.4500	   6.0000	  0.0000	 
  0.4500	   6.5450	  0.0000	 
  0.4500	   7.0900	  0.0000	 
  0.4500	   7.6350	  0.0000	 
  0.4500	   8.1800	  0.0000	 
  0.4500	   8.7250	  0.0000	 
  0.4500	   9.2700	  0.0000	 
  0.4500	   9.8150	  0.0000	 
  0.4500	  10.3600	  0.0000	 
  0.4500	  10.9050	  0.0000	 
  0.6750	   1.3425	  0.0000	 
  0.6750	   1.8600	  0.0000	 
  0.6750	   2.3775	  0.0000	 
  0.6750	   2.8950	  0.0000	 
  0.6750	   3.4125	  0.0000	 
  0.6750	   3.9300	  0.0000	 
  0.6750	   4.4475	  0.0000	 
  0.6750	   4.9650	  0.0000	 
  0.6750	   5.4825	  0.0000	 
  0.6750	   6.0000	  0.0000	 
  0.6750	   6.5175	  0.0000	 
  0.6750	   7.0350	  0.0000	 
  0.6750	   7.5525	  0.0000	 
  0.6750	   8.0700	  0.0000	 
  0.6750	   8.5875	  0.0000	 
  0.6750	   9.1050	  0.0000	 
  0.6750	   9.6225	  0.0000	 
  0.6750	  10.1400	  0.0000	 
  0.6750	  10.6575	  0.0000	 
  0.9000	   1.5900	  0.0000	 
  0.9000	   2.0800	  0.0000	 
  0.9000	   2.5700	  0.0000	 
  0.9000	   3.0600	  0.0000	 
  0.9000	   3.5500	  0.0000	 
  0.9000	   4.0400	  0.0000	 
  0.9000	   4.5300	  0.0000	 
  0.9000	   5.0200	  0.0000	 
  0.9000	   5.5100	  0.0000	 
  0.9000	   6.0000	  0.0000	 
  0.9000	   6.4900	  0.0000	 
  0.9000	   6.9800	  0.0000	 
  0.9000	   7.4700	  0.0000	 
  0.9000	   7.9600	  0.0000	 
  0.9000	   8.4500	  0.0000	 
  0.9000	   8.9400	  0.0000	 
  0.9000	   9.4300	  0.0000	 
  0.9000	   9.9200	  0.0000	 
  0.9000	  10.4100	  0.0000	 
  1.1250	   1.8375	  0.0000	 
  1.1250	   2.3000	  0.0000	 
  1.1250	   2.7625	  0.0000	 
  1.1250	   3.2250	  0.0000	 
  1.1250	   3.6875	  0.0000	 
  1.1250	   4.1500	  0.0000	 
  1.1250	   4.6125	  0.0000	 
  1.1250	   5.0750	  0.0000	 
  1.1250	   5.5375	  0.0000	 
  1.1250	   6.0000	  0.0000	 
  1.1250	   6.4625	  0.0000	 
  1.1250	   6.9250	  0.0000	 
  1.1250	   7.3875	  0.0000	 
  1.1250	   7.8500	  0.0000	 
  1.1250	   8.3125	  0.0000	 
  1.1250	   8.7750	  0.0000	 
  1.1250	   9.2375	  0.0000	 
  1.1250	   9.7000	  0.0000	 
  1.1250	  10.1625	  0.0000	 
  1.3500	   2.0850	  0.0000	 
  1.3500	   2.5200	  0.0000	 
  1.3500	   2.9550	  0.0000	 
  1.3500	   3.3900	  0.0000	 
  1.3500	   3.8250	  0.0000	 
  1.3500	   4.2600	  0.0000	 
  1.3500	   4.6950	  0.0000	 
  1.3500	   5.1300	  0.0000	 
  1.3500	   5.5650	  0.0000	 
  1.3500	   6.0000	  0.0000	 
  1.3500	   6.4350	  0.0000	 
  1.3500	   6.8700	  0.0000	 
  1.3500	   7.3050	  0.0000	 
  1.3500	   7.7400	  0.0000	 
  1.3500	   8.1750	  0.0000	 
  1.3500	   8.6100	  0.0000	 
  1.3500	   9.0450	  0.0000	 
  1.3500	   9.4800	  0.0000	 
  1.3500	   9.9150	  0.0000	 
  1.5750	   2.3325	  0.0000	 
  1.5750	   2.7400	  0.0000	 
  1.5750	   3.1475	  0.0000	 
  1.5750	   3.5550	  0.0000	 
  1.5750	   3.9625	  0.0000	 
  1.5750	   4.3700	  0.0000	 
  1.5750	   4.7775	  0.0000	 
  1.5750	   5.1850	  0.0000	 
  1.5750	   5.5925	  0.0000	 
  1.5750	   6.0000	  0.0000	 
  1.5750	   6.4075	  0.0000	 
  1.5750	   6.8150	  0.0000	 
  1.5750	   7.2225	  0.0000	 
  1.5750	   7.6300	  0.0000	 
  1.5750	   8.0375	  0.0000	 
  1.5750	   8.4450	  0.0000	 
  1.5750	   8.8525	  0.0000	 
  1.5750	   9.2600	  0.0000	 
  1.5750	   9.6675	  0.0000	 
  1.8000	   2.5800	  0.0000	 
  1.8000	   2.9600	  0.0000	 
  1.8000	   3.3400	  0.0000	 
  1.8000	   3.7200	  0.0000	 
  1.8000	   4.1000	  0.0000	 
  1.8000	   4.4800	  0.0000	 
  1.8000	   4.8600	  0.0000	 
  1.8000	   5.2400	  0.0000	 
  1.8000	   5.6200	  0.0000	 
  1.8000	   6.0000	  0.0000	 
  1.8000	   6.3800	  0.0000	 
  1.8000	   6.7600	  0.0000	 
  1.8000	   7.1400	  0.0000	 
  1.8000	   7.5200	  0.0000	 
  1.8000	   7.9000	  0.0000	 
  1.8000	   8.2800	  0.0000	 
  1.8000	   8.6600	  0.0000	 
  1.8000	   9.0400	  0.0000	 
  1.8000	   9.4200	  0.0000	 
  2.0250	   2.8275	  0.0000	 
  2.0250	   3.1800	  0.0000	 
  2.0250	   3.5325	  0.0000	 
  2.0250	   3.8850	  0.0000	 
  2.0250	   4.2375	  0.0000	 
  2.0250	   4.5900	  0.0000	 
  2.0250	   4.9425	  0.0000	 
  2.0250	   5.2950	  0.0000	 
  2.0250	   5.6475	  0.0000	 
  2.0250	   6.0000	  0.0000	 
  2.0250	   6.3525	  0.0000	 
  2.0250	   6.7050	  0.0000	 
  2.0250	   7.0575	  0.0000	 
  2.0250	   7.4100	  0.0000	 
  2.0250	   7.7625	  0.0000	 
  2.0250	   8.1150	  0.0000	 
  2.0250	   8.4675	  0.0000	 
  2.0250	   8.8200	  0.0000	 
  2.0250	   9.1725	  0.0000	 
  2.2500	   3.0750	  0.0000	 
  2.2500	   3.4000	  0.0000	 
  2.2500	   3.7250	  0.0000	 
  2.2500	   4.0500	  0.0000	 
  2.2500	   4.3750	  0.0000	 
  2.2500	   4.7000	  0.0000	 
  2.2500	   5.0250	  0.0000	 
  2.2500	   5.3500	  0.0000	 
  2.2500	   5.6750	  0.0000	 
  2.2500	   6.0000	  0.0000	 
  2.2500	   6.3250	  0.0000	 
  2.2500	   6.6500	  0.0000	 
  2.2500	   6.9750	  0.0000	 
  2.2500	   7.3000	  0.0000	 
  2.2500	   7.6250	  0.0000	 
  2.2500	   7.9500	  0.0000	 
  2.2500	   8.2750	  0.0000	 
  2.2500	   8.6000	  0.0000	 
  2.2500	   8.9250	  0.0000	 
  2.4750	   3.3225	  0.0000	 
  2.4750	   3.6200	  0.0000	 
  2.4750	   3.9175	  0.0000	 
  2.4750	   4.2150	  0.0000	 
  2.4750	   4.5125	  0.0000	 
  2.4750	   4.8100	  0.0000	 
  2.4750	   5.1075	  0.0000	 
  2.4750	   5.4050	  0.0000	 
  2.4750	   5.7025	  0.0000	 
  2.4750	   6.0000	  0.0000	 
  2.4750	   6.2975	  0.0000	 
  2.4750	   6.5950	  0.0000	 
  2.4750	   6.8925	  0.0000	 
  2.4750	   7.1900	  0.0000	 
  2.4750	   7.4875	  0.0000	 
  2.4750	   7.7850	  0.0000	 
  2.4750	   8.0825	  0.0000	 
  2.4750	   8.3800	  0.0000	 
  2.4750	   8.6775	  0.0000	 
  2.7000	   3.5700	  0.0000	 
  2.7000	   3.8400	  0.0000	 
  2.7000	   4.1100	  0.0000	 
  2.7000	   4.3800	  0.0000	 
  2.7000	   4.6500	  0.0000	 
  2.7000	   4.9200	  0.0000	 
  2.7000	   5.1900	  0.0000	 
  2.7000	   5.4600	  0.0000	 
  2.7000	   5.7300	  0.0000	 
  2.7000	   6.0000	  0.0000	 
  2.7000	   6.2700	  0.0000	 
  2.7000	   6.5400	  0.0000	 
  2.7000	   6.8100	  0.0000	 
  2.7000	   7.0800	  0.0000	 
  2.7000	   7.3500	  0.0000	 
  2.7000	   7.6200	  0.0000	 
  2.7000	   7.8900	  0.0000	 
  2.7000	   8.1600	  0.0000	 
  2.7000	   8.4300	  0.0000	 
  2.9250	   3.8175	  0.0000	 
  2.9250	   4.0600	  0.0000	 
  2.9250	   4.3025	  0.0000	 
  2.9250	   4.5450	  0.0000	 
  2.9250	   4.7875	  0.0000	 
  2.9250	   5.0300	  0.0000	 
  2.9250	   5.2725	  0.0000	 
  2.9250	   5.5150	  0.0000	 
  2.9250	   5.7575	  0.0000	 
  2.9250	   6.0000	  0.0000	 
  2.9250	   6.2425	  0.0000	 
  2.9250	   6.4850	  0.0000	 
  2.9250	   6.7275	  0.0000	 
  2.9250	   6.9700	  0.0000	 
  2.9250	   7.2125	  0.0000	 
  2.9250	   7.4550	  0.0000	 
  2.9250	   7.6975	  0.0000	 
  2.9250	   7.9400	  0.0000	 
  2.9250	   8.1825	  0.0000	 
  3.1500	   4.0650	  0.0000	 
  3.1500	   4.2800	  0.0000	 
  3.1500	   4.4950	  0.0000	 
  3.1500	   4.7100	  0.0000	 
  3.1500	   4.9250	  0.0000	 
  3.1500	   5.1400	  0.0000	 
  3.1500	   5.3550	  0.0000	 
  3.1500	   5.5700	  0.0000	 
  3.1500	   5.7850	  0.0000	 
  3.1500	   6.0000	  0.0000	 
  3.1500	   6.2150	  0.0000	 
  3.1500	   6.4300	  0.0000	 
  3.1500	   6.6450	  0.0000	 
  3.1500	   6.8600	  0.0000	 
  3.1500	   7.0750	  0.0000	 
  3.1500	   7.2900	  0.0000	 
  3.1500	   7.5050	  0.0000	 
  3.1500	   7.7200	  0.0000	 
  3.1500	   7.9350	  0.0000	 
  3.3750	   4.3125	  0.0000	 
  3.3750	   4.5000	  0.0000	 
  3.3750	   4.6875	  0.0000	 
  3.3750	   4.8750	  0.0000	 
  3.3750	   5.0625	  0.0000	 
  3.3750	   5.2500	  0.0000	 
  3.3750	   5.4375	  0.0000	 
  3.3750	   5.6250	  0.0000	 
  3.3750	   5.8125	  0.0000	 
  3.3750	   6.0000	  0.0000	 
  3.3750	   6.1875	  0.0000	 
  3.3750	   6.3750	  0.0000	 
  3.3750	   6.5625	  0.0000	 
  3.3750	   6.7500	  0.0000	 
  3.3750	   6.9375	  0.0000	 
  3.3750	   7.1250	  0.0000	 
  3.3750	   7.3125	  0.0000	 
  3.3750	   7.5000	  0.0000	 
  3.3750	   7.6875	  0.0000	 
  3.6000	   4.5600	  0.0000	 
  3.6000	   4.7200	  0.0000	 
  3.6000	   4.8800	  0.0000	 
  3.6000	   5.0400	  0.0000	 
  3.6000	   5.2000	  0.0000	 
  3.6000	   5.3600	  0.0000	 
  3.6000	   5.5200	  0.0000	 
  3.6000	   5.6800	  0.0000	 
  3.6000	   5.8400	  0.0000	 
  3.6000	   6.0000	  0.0000	 
  3.6000	   6.1600	  0.0000	 
  3.6000	   6.3200	  0.0000	 
  3.6000	   6.4800	  0.0000	 
  3.6000	   6.6400	  0.0000	 
  3.6000	   6.8000	  0.0000	 
  3.6000	   6.9600	  0.0000	 
  3.6000	   7.1200	  0.0000	 
  3.6000	   7.2800	  0.0000	 
  3.6000	   7.4400	  0.0000	 
  3.8250	   4.8075	  0.0000	 
  3.8250	   4.9400	  0.0000	 
  3.8250	   5.0725	  0.0000	 
  3.8250	   5.2050	  0.0000	 
  3.8250	   5.3375	  0.0000	 
  3.8250	   5.4700	  0.0000	 
  3.8250	   5.6025	  0.0000	 
[...]
POINT_DATA 	    1451 
VECTORS U float 
 50.0000	   0.0000	   0.0000	
 50.0000	   0.0000	   0.0000	
 50.0000	   0.0000	   0.0000	
 50.0000	   0.0000	   0.0000	
 50.0000	  -0.0000	   0.0000	
 50.0000	  -0.0000	   0.0000	
 50.0000	   0.0000	   0.0000	
 50.0000	  -0.0000	   0.0000	
 50.0000	  -0.0000	   0.0000	
 50.0000	   0.0000	   0.0000	
 50.0000	  -0.0000	   0.0000	
 50.0000	  -0.0000	   0.0000	
 50.0000	   0.0000	   0.0000	
 50.0000	   0.0000	   0.0000	
 50.0000	  -0.0000	   0.0000	
 50.0000	  -0.0000	   0.0000	
 50.0000	   0.0000	   0.0000	
 50.0000	   0.0000	   0.0000	
 50.0000	  -0.0000	   0.0000	
 47.9261	  12.7520	   0.0000	
 51.9298	  13.2629	   0.0000	
 49.2164	  21.0204	   0.0000	
 50.6604	  20.1029	   0.0000	
 50.3718	  17.3963	   0.0000	
 49.1461	  33.5102	   0.0000	
 48.5930	  44.1143	   0.0000	
 49.8070	  50.4163	   0.0000	
 49.4358	  54.3188	   0.0000	
 49.0264	  57.4814	   0.0000	
 50.6137	  59.0649	   0.0000	
 50.2529	  55.0593	   0.0000	
 50.8209	  50.0520	   0.0000	
 52.0753	  39.0452	   0.0000	
 49.5852	  34.3812	   0.0000	
 50.4640	  25.7367	   0.0000	
 50.2574	  27.8886	   0.0000	
 49.0250	  26.4721	   0.0000	
 51.1254	  24.0985	   0.0000	
 49.0657	  19.0678	   0.0000	
 43.2512	  33.1690	   0.0000	
 50.1319	  42.4422	   0.0000	
 51.1995	  33.9847	   0.0000	
 38.8055	  54.6772	   0.0000	
 41.9030	  53.8715	   0.0000	
 44.0286	  67.5349	   0.0000	
 46.8711	  75.4132	   0.0000	
 48.7070	  77.0699	   0.0000	
 48.4132	  78.0969	   0.0000	
 49.5313	  80.1849	   0.0000	
 52.3311	  83.9973	   0.0000	
 54.5522	  80.6981	   0.0000	
 59.3745	  68.9787	   0.0000	
 50.1296	  65.1068	   0.0000	
 57.5348	  63.0423	   0.0000	
 47.2243	  49.0891	   0.0000	
 51.5968	  51.1384	   0.0000	
 51.9861	  50.5702	   0.0000	
 39.2847	  33.6154	   0.0000	
 39.3619	  56.3866	   0.0000	
 59.6942	  46.3676	   0.0000	
 38.9774	  65.9169	   0.0000	
 46.2285	  57.7490	   0.0000	
 37.9365	  62.1162	   0.0000	
 43.0748	  64.2467	   0.0000	
 47.1849	  62.5318	   0.0000	
 47.1848	  66.4633	   0.0000	
 47.1470	  69.1237	   0.0000	
 49.4965	  72.3137	   0.0000	
 49.4817	  71.5675	   0.0000	
 52.9712	  79.9264	   0.0000	
 61.8472	  82.7620	   0.0000	
 52.9550	  82.2644	   0.0000	
 53.3663	  83.5960	   0.0000	
 58.7772	  82.4125	   0.0000	
 50.0204	  69.1830	   0.0000	
 48.9426	  69.7829	   0.0000	
 23.0354	  54.4410	   0.0000	
 55.5828	  50.3331	   0.0000	
 40.0977	  73.2331	   0.0000	
 43.3661	  64.1283	   0.0000	
 42.3632	  67.4604	   0.0000	
 37.6681	  63.9039	   0.0000	
 43.6736	  66.3586	   0.0000	
 45.9757	  69.5574	   0.0000	
 46.4883	  71.2515	   0.0000	
 46.5833	  72.9882	   0.0000	
 47.5006	  73.9467	   0.0000	
 49.6050	  78.0182	   0.0000	
 49.5565	  77.5272	   0.0000	
 59.2117	  80.0571	   0.0000	
 55.4082	  88.7741	   0.0000	
 50.2039	  89.8472	   0.0000	
 59.2845	  95.5987	   0.0000	
 56.7640	  94.1893	   0.0000	
 50.3662	  81.0918	   0.0000	
 44.1463	  51.1218	   0.0000	
 38.8494	  69.9380	   0.0000	
 45.8782	  69.4024	   0.0000	
 42.9303	  69.4363	   0.0000	
 42.9151	  66.6418	   0.0000	
 38.6458	  62.9016	   0.0000	
 42.4170	  65.8742	   0.0000	
 45.2302	  67.5157	   0.0000	
 44.9100	  70.6148	   0.0000	
 45.4343	  72.9132	   0.0000	
 47.8289	  75.0550	   0.0000	
 47.3501	  74.3804	   0.0000	
 49.7622	  79.2180	   0.0000	
 55.8558	  76.7173	   0.0000	
 52.2276	  83.8547	   0.0000	
 49.4998	  93.5860	   0.0000	
 52.6836	  93.6291	   0.0000	
 59.1783	 101.5460	   0.0000	
 61.4029	 102.7833	   0.0000	
 41.1324	  65.7053	   0.0000	
 38.2877	  63.8522	   0.0000	
 45.4731	  67.9516	   0.0000	
 44.4347	  64.1691	   0.0000	
 42.5400	  65.6681	   0.0000	
 38.2931	  64.5042	   0.0000	
 42.6283	  66.1813	   0.0000	
 43.8387	  68.5824	   0.0000	
 44.1732	  71.0270	   0.0000	
 44.4137	  72.6138	   0.0000	
 46.2182	  75.3658	   0.0000	
 47.7607	  77.4964	   0.0000	
 46.4080	  77.8978	   0.0000	
 55.5022	  81.3556	   0.0000	
 51.0297	  83.8716	   0.0000	
 45.8693	  87.2857	   0.0000	
 50.5984	  91.3623	   0.0000	
 52.2024	  94.4964	   0.0000	
 54.8932	 106.5545	   0.0000	
 42.6930	  61.3520	   0.0000	
 39.9847	  56.7298	   0.0000	
 46.5589	  61.7807	   0.0000	
 42.3310	  62.6707	   0.0000	
 41.3672	  65.8539	   0.0000	
 38.4713	  64.0807	   0.0000	
 41.1508	  67.5394	   0.0000	
 42.6833	  70.0880	   0.0000	
 42.6413	  72.6206	   0.0000	
 43.6155	  74.4194	   0.0000	
 45.2884	  75.4403	   0.0000	
 46.1997	  77.3736	   0.0000	
 46.8734	  79.5939	   0.0000	
 51.1134	  77.1845	   0.0000	
 51.4571	  85.0715	   0.0000	
 47.0168	  84.7314	   0.0000	
 46.1012	  82.7237	   0.0000	
 50.6946	  86.4320	   0.0000	
 46.2940	  91.0176	   0.0000	
 42.6970	  61.3863	   0.0000	
 40.4200	  58.7018	   0.0000	
 44.3015	  64.9334	   0.0000	
 39.6271	  66.0253	   0.0000	
 41.5914	  66.8101	   0.0000	
 37.5549	  65.8467	   0.0000	
 40.3568	  68.4382	   0.0000	
 41.4798	  69.8668	   0.0000	
 41.8543	  72.0616	   0.0000	
 42.1960	  74.0295	   0.0000	
 44.5137	  76.7875	   0.0000	
 44.8740	  77.2430	   0.0000	
 45.3918	  80.3291	   0.0000	
 51.3593	  80.2618	   0.0000	
 47.1073	  82.0756	   0.0000	
 49.5843	  88.0245	   0.0000	
 47.8292	  84.7644	   0.0000	
 46.3241	  84.1280	   0.0000	
 47.0808	  90.9546	   0.0000	
 43.2204	  60.0347	   0.0000	
 38.6537	  58.9596	   0.0000	
 42.0860	  65.3426	   0.0000	
 39.9767	  62.8558	   0.0000	
 40.1284	  66.3092	   0.0000	
 36.8804	  66.4264	   0.0000	
 39.5883	  68.6472	   0.0000	
 40.0699	  71.3031	   0.0000	
 40.2796	  73.9930	   0.0000	
 41.1368	  75.7665	   0.0000	
 43.1261	  77.4954	   0.0000	
 44.6286	  79.3924	   0.0000	
 43.6207	  79.7236	   0.0000	
 49.3677	  80.5027	   0.0000	
 48.2395	  83.5403	   0.0000	
 44.8074	  82.8903	   0.0000	
 49.8613	  87.1426	   0.0000	
 47.6382	  86.2503	   0.0000	
 41.4900	  90.0419	   0.0000	
 41.0440	  60.6070	   0.0000	
 36.1453	  59.7193	   0.0000	
 42.9910	  63.7291	   0.0000	
 37.2250	  63.0749	   0.0000	
 38.6935	  66.7390	   0.0000	
 36.2084	  66.0178	   0.0000	
 37.9491	  69.4601	   0.0000	
 38.3903	  71.7261	   0.0000	
 39.2169	  73.9313	   0.0000	
 39.6986	  75.6165	   0.0000	
 41.9622	  77.6263	   0.0000	
 42.8876	  78.7991	   0.0000	
 43.8949	  81.3153	   0.0000	
 47.1938	  78.9082	   0.0000	
 46.9277	  82.6645	   0.0000	
 47.8620	  82.5363	   0.0000	
 43.5205	  81.6942	   0.0000	
 50.0528	  86.3320	   0.0000	
 43.9369	  86.8879	   0.0000	
 38.0079	  62.0983	   0.0000	
 38.2077	  59.9724	   0.0000	
 40.3847	  64.7449	   0.0000	
 34.9975	  64.2242	   0.0000	
 38.2646	  67.0578	   0.0000	
 34.1676	  68.0710	   0.0000	
 36.4708	  71.0229	   0.0000	
 36.8821	  73.0884	   0.0000	
 37.8075	  75.3806	   0.0000	
 38.0349	  77.6323	   0.0000	
 41.0251	  79.8194	   0.0000	
 41.8544	  80.5062	   0.0000	
 42.3761	  81.7302	   0.0000	
 47.7248	  81.5163	   0.0000	
 44.6564	  82.0781	   0.0000	
 47.8767	  83.1146	   0.0000	
 46.0441	  84.0945	   0.0000	
 42.4539	  84.9383	   0.0000	
 48.0241	  89.7547	   0.0000	
 39.9896	  61.1396	   0.0000	
 35.1391	  60.7472	   0.0000	
 38.4406	  65.9980	   0.0000	
 33.9442	  63.0330	   0.0000	
 35.8090	  67.4719	   0.0000	
 32.5321	  67.5757	   0.0000	
 35.1090	  70.5454	   0.0000	
 35.0556	  72.6656	   0.0000	
 36.0091	  75.6219	   0.0000	
 36.2645	  77.4938	   0.0000	
 38.9289	  79.9872	   0.0000	
 41.0964	  82.1337	   0.0000	
 41.8152	  82.8003	   0.0000	
 45.5613	  81.4170	   0.0000	
 45.8651	  84.4198	   0.0000	
 45.3704	  82.8853	   0.0000	
 45.0938	  87.4740	   0.0000	
 46.1645	  87.3948	   0.0000	
 38.6667	  87.9594	   0.0000	
 35.9078	  58.5990	   0.0000	
 31.9746	  59.7301	   0.0000	
 38.4478	  65.7664	   0.0000	
 30.3530	  65.1560	   0.0000	
 34.2346	  69.9879	   0.0000	
 31.0099	  70.0765	   0.0000	
 33.0497	  73.0382	   0.0000	
 32.2992	  76.4866	   0.0000	
 34.3505	  79.0739	   0.0000	
 35.0024	  80.3167	   0.0000	
 37.2585	  81.0396	   0.0000	
 38.1875	  82.7844	   0.0000	
 41.6771	  85.3291	   0.0000	
 45.3943	  83.3454	   0.0000	
 43.2412	  84.8292	   0.0000	
 47.1639	  84.6816	   0.0000	
 40.9529	  86.4683	   0.0000	
 47.5451	  84.2905	   0.0000	
 47.1732	  78.4334	   0.0000	
 30.7544	  59.0788	   0.0000	
 30.9326	  59.8291	   0.0000	
 32.6157	  66.0130	   0.0000	
 27.7454	  64.3683	   0.0000	
 32.4732	  68.9947	   0.0000	
 28.8333	  69.2442	   0.0000	
 29.3480	  73.5966	   0.0000	
 30.0478	  75.5969	   0.0000	
 32.9920	  77.7240	   0.0000	
 31.2372	  81.0202	   0.0000	
 37.5711	  84.4472	   0.0000	
 35.9549	  83.3475	   0.0000	
 38.8710	  84.7268	   0.0000	
 45.1909	  84.5418	   0.0000	
 42.9385	  86.4267	   0.0000	
 45.1686	  85.3420	   0.0000	
 44.1014	  88.6395	   0.0000	
 46.8929	  82.2224	   0.0000	
 52.4349	  76.1493	   0.0000	
 27.2032	  58.0654	   0.0000	
 26.1706	  64.0065	   0.0000	
 29.2472	  69.0754	   0.0000	
 27.0528	  69.1581	   0.0000	
 30.1630	  72.3911	   0.0000	
 24.7207	  72.4112	   0.0000	
 28.1413	  73.9258	   0.0000	
 28.7702	  74.6368	   0.0000	
 29.2158	  77.9483	   0.0000	
 27.3891	  81.3797	   0.0000	
 32.9304	  85.1678	   0.0000	
 37.5998	  88.4161	   0.0000	
 37.8966	  86.8988	   0.0000	
 39.5667	  87.8417	   0.0000	
 42.0379	  94.5012	   0.0000	
 43.8635	  94.9222	   0.0000	
 43.0079	  94.6267	   0.0000	
 54.4101	  86.3376	   0.0000	
 52.9392	  76.7459	   0.0000	
 21.1083	  56.5592	   0.0000	
 26.1293	  61.9653	   0.0000	
 18.0001	  67.7525	   0.0000	
 25.7713	  75.9636	   0.0000	
 26.1171	  80.2084	   0.0000	
 26.1171	  79.4964	   0.0000	
 27.9637	  79.7144	   0.0000	
 24.3781	  82.0547	   0.0000	
 24.5833	  85.9875	   0.0000	
 26.7049	  86.2489	   0.0000	
 27.2964	  86.3617	   0.0000	
 30.2277	  91.9785	   0.0000	
 39.7452	  96.3388	   0.0000	
 36.5901	  94.7880	   0.0000	
 29.5507	 101.6329	   0.0000	
 42.3510	 100.8687	   0.0000	
 52.2376	  92.4487	   0.0000	
 48.5373	  85.9978	   0.0000	
 63.0861	  73.9725	   0.0000	
 10.8207	  53.9046	   0.0000	
  8.6530	  60.2349	   0.0000	
 17.9502	  65.5470	   0.0000	
 19.3530	  70.8479	   0.0000	
 25.8862	  74.6981	   0.0000	
 28.5196	  73.4354	   0.0000	
 22.5156	  74.1499	   0.0000	
 18.8971	  76.2094	   0.0000	
 24.8054	  76.6395	   0.0000	
 19.3803	  80.4265	   0.0000	
 27.5697	  85.3111	   0.0000	
 18.4250	  86.4204	   0.0000	
 24.8159	  95.1030	   0.0000	
 42.9495	  98.1182	   0.0000	
 22.7670	 106.2188	   0.0000	
 33.1970	 111.1033	   0.0000	
 46.2083	 102.6017	   0.0000	
 63.0153	  95.7814	   0.0000	
 67.6321	  83.3042	   0.0000	
  3.6038	  55.8769	   0.0000	
  7.2314	  66.9110	   0.0000	
 11.9445	  74.3277	   0.0000	
 27.6225	  81.1048	   0.0000	
 32.6123	  83.4027	   0.0000	
 18.2387	  80.4328	   0.0000	
 15.9983	  86.2342	   0.0000	
 18.1536	  89.6842	   0.0000	
 16.8477	  95.2345	   0.0000	
 14.3353	  99.3102	   0.0000	
 15.4682	 101.5275	   0.0000	
 17.0453	 109.1727	   0.0000	
  5.1225	 113.7607	   0.0000	
 20.0946	 118.4723	   0.0000	
 17.7963	 131.7914	   0.0000	
 10.0059	 141.9146	   0.0000	
 28.2797	 135.1861	   0.0000	
 66.6209	 113.1909	   0.0000	
 74.6934	  87.4724	   0.0000	
 -3.7449	  41.6593	   0.0000	
  4.5934	  49.4920	   0.0000	
 17.2160	  57.1340	   0.0000	
 24.2979	  66.1227	   0.0000	
  2.3451	  72.1699	   0.0000	
  0.8922	  74.5572	   0.0000	
  9.2423	  79.1636	   0.0000	
 -0.7311	  82.8697	   0.0000	
  8.8540	  86.3592	   0.0000	
 -1.0771	  89.9306	   0.0000	
 11.0980	  93.8238	   0.0000	
 -3.4768	  97.5543	   0.0000	
  9.8116	  99.2771	   0.0000	
 -1.8874	 102.8594	   0.0000	
  0.2941	 102.4808	   0.0000	
 -2.6015	 108.2192	   0.0000	
  1.9428	 107.1351	   0.0000	
 24.9911	 104.0864	   0.0000	
 63.8583	  92.7371	   0.0000	
 -0.0000	  -0.0000	   0.0000	
  0.0000	   0.0000	   0.0000	
 -0.0000	   0.0000	   0.0000	
 -0.0000	   0.0000	   0.0000	
  0.0000	  -0.0000	   0.0000	
 -0.0000	   0.0000	   0.0000	
  0.0000	   0.0000	   0.0000	
  0.0000	  -0.0000	   0.0000	
 -0.0000	  -0.0000	   0.0000	
  0.0000	   0.0000	   0.0000	
  0.0000	   0.0000	   0.0000	
  0.0000	  -0.0000	   0.0000	
 -0.0000	  -0.0000	   0.0000	
 -0.0000	   0.0000	   0.0000	
 -0.0000	  -0.0000	   0.0000	
 -0.0000	  -0.0000	   0.0000	
  0.0000	  -0.0000	   0.0000	
 -0.0000	  -0.0000	   0.0000	
  0.0000	   0.0000	   0.0000	
 50.0000	  50.0000	   0.0000	
 50.0000	  -0.0000	   0.0000	
 70.7223	  49.5058	   0.0000	
 49.7392	  17.4622	   0.0000	
 80.8427	  51.1472	   0.0000	
 54.1464	  35.7732	   0.0000	
 76.3822	  55.1781	   0.0000	
 65.3861	  55.7809	   0.0000	
 70.4739	  60.8557	   0.0000	
 65.0544	  71.3328	   0.0000	
 40.4719	  78.9448	   0.0000	
 56.1653	  81.2400	   0.0000	
 48.6871	  71.5091	   0.0000	
 72.6941	 100.1970	   0.0000	
 45.5718	  72.1169	   0.0000	
 63.7772	  90.7331	   0.0000	
 48.8792	  66.8757	   0.0000	
 52.7036	  81.8730	   0.0000	
 47.4455	  65.8879	   0.0000	
 56.0258	  81.3909	   0.0000	
 47.0285	  63.8031	   0.0000	
 51.1528	  76.5682	   0.0000	
 43.2265	  63.6801	   0.0000	
 53.7464	  76.1458	   0.0000	
 39.4318	  62.9906	   0.0000	
 60.2780	  76.7436	   0.0000	
 40.6302	  58.9095	   0.0000	
 47.7429	  68.5127	   0.0000	
 34.5114	  57.2244	   0.0000	
 55.4324	  69.2049	   0.0000	
 29.1343	  54.8680	   0.0000	
 59.7808	  67.4590	   0.0000	
 19.2740	  53.0803	   0.0000	
 65.5491	  65.4787	   0.0000	
 16.4736	  44.8457	   0.0000	
 75.0286	  62.2092	   0.0000	
 -7.0708	  43.5806	   0.0000	
 94.8404	  61.8668	   0.0000	
-16.2674	  31.7545	   0.0000	
122.6835	  61.9026	   0.0000	
 -0.0000	   0.0000	   0.0000	
 -0.0000	  -0.0000	   0.0000	
 50.9953	  50.0000	   0.0000	
 92.8490	 165.1616	   0.0000	
 45.7292	  49.8476	   0.0000	
 54.8861	 146.0059	   0.0000	
 43.7236	  50.4277	   0.0000	
 33.9375	 129.1079	   0.0000	
 40.5543	  49.6891	   0.0000	
 20.8726	 115.0393	   0.0000	
 43.7560	  47.8688	   0.0000	
 21.2761	 109.3347	   0.0000	
 45.5191	  46.6350	   0.0000	
 19.1550	 103.9409	   0.0000	
 43.2038	  46.9838	   0.0000	
 23.0071	 101.3094	   0.0000	
 43.7716	  46.7906	   0.0000	
 21.6095	  96.4552	   0.0000	
 43.0803	  46.1245	   0.0000	
 23.0836	  92.4423	   0.0000	
 41.1078	  46.0934	   0.0000	
 24.7081	  88.2043	   0.0000	
 39.4527	  45.6245	   0.0000	
 33.6060	  86.9939	   0.0000	
 44.9996	  42.6551	   0.0000	
 24.6179	  79.0643	   0.0000	
 40.4429	  43.0061	   0.0000	
 31.5449	  77.0967	   0.0000	
 41.0611	  40.4221	   0.0000	
 33.4902	  72.5929	   0.0000	
 40.0756	  36.3220	   0.0000	
 35.0454	  66.6190	   0.0000	
 41.2963	  31.5135	   0.0000	
 38.3882	  58.1552	   0.0000	
 33.2382	  28.5546	   0.0000	
 48.2998	  50.9031	   0.0000	
 19.3235	  23.6564	   0.0000	
 69.6528	  43.4232	   0.0000	
 42.9461	   2.9731	   0.0000	
 60.6970	  22.2371	   0.0000	
 29.9779	  -0.0973	   0.0000	
 -4.3129	  -2.2972	   0.0000	
 -0.0000	   0.0000	   0.0000	
 -0.0000	  -0.0000	   0.0000	
 49.1510	  50.0000	   0.0000	
-47.2331	  63.9895	   0.0000	
 50.4908	  50.3082	   0.0000	
-13.9587	  66.0101	   0.0000	
 45.9058	  50.6791	   0.0000	
  0.7029	  66.0286	   0.0000	
 43.6225	  52.3122	   0.0000	
  7.6041	  65.9431	   0.0000	
 44.9959	  52.3785	   0.0000	
  9.5658	  64.7020	   0.0000	
 44.0337	  53.0972	   0.0000	
  9.2012	  63.6162	   0.0000	
 45.5536	  53.7964	   0.0000	
 10.4481	  62.6719	   0.0000	
 45.7072	  53.7724	   0.0000	
 12.0415	  61.3057	   0.0000	
 44.7419	  54.6031	   0.0000	
 15.2559	  60.2148	   0.0000	
 43.6059	  55.6558	   0.0000	
 18.3384	  59.4415	   0.0000	
 46.3224	  55.7868	   0.0000	
 15.0539	  58.0613	   0.0000	
 47.8541	  56.6731	   0.0000	
 16.7482	  56.4124	   0.0000	
 53.1537	  57.1579	   0.0000	
 16.8143	  54.3707	   0.0000	
 54.6039	  58.5446	   0.0000	
  7.8691	  51.8097	   0.0000	
 57.0263	  59.7914	   0.0000	
  9.7946	  50.2966	   0.0000	
 64.1237	  58.9975	   0.0000	
  6.9466	  45.6884	   0.0000	
 64.2722	  59.0510	   0.0000	
 15.0839	  41.6731	   0.0000	
 74.8988	  61.4022	   0.0000	
 19.4309	  38.3405	   0.0000	
 72.7252	  61.3723	   0.0000	
 -3.5632	  39.3490	   0.0000	
 46.8775	  61.9464	   0.0000	
 -2.0372	  45.2379	   0.0000	
 26.3150	  61.0181	   0.0000	
  3.5877	  48.6933	   0.0000	
 45.7067	  50.0000	   0.0000	
  9.9009	  52.9981	   0.0000	
 40.9516	  49.9718	   0.0000	
 -2.3391	  58.0323	   0.0000	
 40.4084	  50.3404	   0.0000	
  3.2620	  58.5155	   0.0000	
 38.2049	  49.9220	   0.0000	
  5.3246	  58.3296	   0.0000	
 39.1168	  50.3754	   0.0000	
  6.7485	  58.3825	   0.0000	
 40.5050	  50.8761	   0.0000	
  6.3617	  58.8065	   0.0000	
 38.9876	  50.7516	   0.0000	
 10.8443	  57.9102	   0.0000	
 39.7508	  51.5451	   0.0000	
  9.2771	  59.1465	   0.0000	
 40.3118	  52.1147	   0.0000	
 11.6632	  58.5723	   0.0000	
 37.7434	  52.1646	   0.0000	
 13.1111	  58.2826	   0.0000	
 42.3366	  53.1400	   0.0000	
 14.0260	  58.4740	   0.0000	
 38.7062	  53.1277	   0.0000	
 15.5538	  57.7858	   0.0000	
 38.4281	  54.6472	   0.0000	
 12.9373	  59.2460	   0.0000	
 42.6671	  57.1822	   0.0000	
 14.5070	  60.3904	   0.0000	
 39.7721	  58.2185	   0.0000	
 15.0325	  60.6927	   0.0000	
 43.9708	  62.6732	   0.0000	
  8.9585	  64.3471	   0.0000	
 42.0299	  66.4496	   0.0000	
  9.7292	  65.6345	   0.0000	
 41.4223	  72.1743	   0.0000	
 13.0034	  66.7812	   0.0000	
 45.8443	  79.4806	   0.0000	
 22.6913	  64.3285	   0.0000	
 38.0114	  88.8956	   0.0000	
 19.5923	  72.9025	   0.0000	
 14.9175	  91.4490	   0.0000	
 24.0960	  76.4512	   0.0000	
 41.6230	  50.0000	   0.0000	
 -1.4111	  45.6907	   0.0000	
 42.3544	  50.1180	   0.0000	
  2.2329	  45.0111	   0.0000	
 41.8900	  50.7013	   0.0000	
  4.6088	  44.2565	   0.0000	
 40.5388	  50.1314	   0.0000	
  7.7057	  43.5836	   0.0000	
 41.9575	  50.7713	   0.0000	
  7.6709	  44.2173	   0.0000	
 41.3573	  50.1263	   0.0000	
  5.4907	  46.5767	   0.0000	
 41.2608	  50.0698	   0.0000	
  7.1518	  46.5073	   0.0000	
 40.6457	  49.7438	   0.0000	
  7.0995	  47.9837	   0.0000	
 40.3090	  49.7953	   0.0000	
  9.5145	  47.8566	   0.0000	
 38.9099	  49.2340	   0.0000	
 11.2807	  47.8685	   0.0000	
 39.4160	  49.8586	   0.0000	
  9.6241	  49.7608	   0.0000	
 38.7796	  49.6983	   0.0000	
 13.0954	  48.8630	   0.0000	
 39.6451	  50.8401	   0.0000	
 13.2474	  49.7055	   0.0000	
 37.0674	  49.7648	   0.0000	
 14.0151	  50.0238	   0.0000	
 38.1520	  51.0021	   0.0000	
 14.7794	  50.8898	   0.0000	
 37.0644	  51.3321	   0.0000	
 15.9634	  51.0639	   0.0000	
 35.0250	  51.7048	   0.0000	
 16.9782	  52.0793	   0.0000	
 37.2815	  54.9385	   0.0000	
 14.9514	  56.2092	   0.0000	
 31.2010	  54.0181	   0.0000	
 22.2202	  56.4246	   0.0000	
 34.7625	  58.5468	   0.0000	
 17.8500	  60.3915	   0.0000	
 11.5425	  56.3867	   0.0000	
 36.8948	  54.9105	   0.0000	
 49.0010	  50.0000	   0.0000	
  0.2138	  29.0699	   0.0000	
 46.7682	  49.3051	   0.0000	
  1.5396	  30.5576	   0.0000	
 44.3471	  48.5818	   0.0000	
  2.8653	  31.9947	   0.0000	
 43.8328	  48.3181	   0.0000	
  3.6695	  33.6860	   0.0000	
 45.6431	  48.9147	   0.0000	
  6.1640	  34.5768	   0.0000	
 45.3809	  48.5001	   0.0000	
  7.2890	  36.2990	   0.0000	
 41.7057	  45.7557	   0.0000	
  7.7499	  37.8730	   0.0000	
 41.2837	  45.8530	   0.0000	
  8.6835	  38.3122	   0.0000	
 40.8422	  46.5611	   0.0000	
  9.9532	  38.5255	   0.0000	
 39.4202	  46.9622	   0.0000	
 11.5279	  39.7802	   0.0000	
 38.6183	  47.2236	   0.0000	
 13.1460	  41.1027	   0.0000	
 37.6269	  47.9319	   0.0000	
 14.3854	  42.3133	   0.0000	
 36.2422	  48.0600	   0.0000	
 15.9513	  43.7846	   0.0000	
 36.3118	  49.5608	   0.0000	
 15.3644	  46.3736	   0.0000	
 35.2163	  49.6222	   0.0000	
 17.2212	  46.5651	   0.0000	
 33.0617	  50.6352	   0.0000	
 18.7881	  47.9914	   0.0000	
 32.9269	  51.3770	   0.0000	
 20.8082	  48.6816	   0.0000	
 32.6583	  52.8288	   0.0000	
 19.7572	  51.1531	   0.0000	
 29.6557	  52.5820	   0.0000	
 22.1546	  51.6887	   0.0000	
 29.6056	  53.7832	   0.0000	
 24.9565	  51.2435	   0.0000	
 25.3248	  53.3483	   0.0000	
 23.5804	  54.8290	   0.0000	
  0.0000	   0.0000	   0.0000	
  0.0000	   0.0000	   0.0000	
 -0.0000	   0.0000	   0.0000	
  0.0000	  -0.0000	   0.0000	
 -0.0000	   0.0000	   0.0000	
  0.0000	   0.0000	   0.0000	
 -0.0000	   0.0000	   0.0000	
 -0.0000	  -0.0000	   0.0000	
 -0.0000	  -0.0000	   0.0000	
 -0.0000	   0.0000	   0.0000	
 -0.0000	  -0.0000	   0.0000	
 -0.0000	  -0.0000	   0.0000	
 -0.0000	   0.0000	   0.0000	
 -0.0000	  -0.0000	   0.0000	