# vtk DataFile Version 3.0 
Results 
ASCII 
DATASET UNSTRUCTURED_GRID 
POINTS 	    1451 float 
  0.0000	   0.6000	  0.0000	 
  0.0000	   1.2000	  0.0000	 
  0.0000	   1.8000	  0.0000	 
  0.0000	   2.4000	  0.0000	 
  0.0000	   3.0000	  0.0000	 
  0.0000	   3.6000	  0.0000	 
  0.0000	   4.2000	  0.0000	 
  0.0000	   4.8000	  0.0000	 
  0.0000	   5.4000	  0.0000	 
  0.0000	   6.0000	  0.0000	 
  0.0000	   6.6000	  0.0000	 
  0.0000	   7.2000	  0.0000	 
  0.0000	   7.8000	  0.0000	 
  0.0000	   8.4000	  0.0000	 
  0.0000	   9.0000	  0.0000	 
  0.0000	   9.6000	  0.0000	 
  0.0000	  10.2000	  0.0000	 
  0.0000	  10.8000	  0.0000	 
  0.0000	  11.4000	  0.0000	 
  0.2250	   0.8475	  0.0000	 
  0.2250	   1.4200	  0.0000	 
  0.2250	   1.9925	  0.0000	 
  0.2250	   2.5650	  0.0000	 
  0.2250	   3.1375	  0.0000	 
  0.2250	   3.7100	  0.0000	 
  0.2250	   4.2825	  0.0000	 
  0.2250	   4.8550	  0.0000	 
  0.2250	   5.4275	  0.0000	 
  0.2250	   6.0000	  0.0000	 
  0.2250	   6.5725	  0.0000	 
  0.2250	   7.1450	  0.0000	 
  0.2250	   7.7175	  0.0000	 
  0.2250	   8.2900	  0.0000	 
  0.2250	   8.8625	  0.0000	 
  0.2250	   9.4350	  0.0000	 
  0.2250	  10.0075	  0.0000	 
  0.2250	  10.5800	  0.0000	 
  0.2250	  11.1525	  0.0000	 
  0.4500	   1.0950	  0.0000	 
  0.4500	   1.6400	  0.0000	 
  0.4500	   2.1850	  0.0000	 
  0.4500	   2.7300	  0.0000	 
  0.4500	   3.2750	  0.0000	 
  0.4500	   3.8200	  0.0000	 
  0.4500	   4.3650	  0.0000	 
  0.4500	   4.9100	  0.0000	 
  0.4500	   5.4550	  0.0000	 
  0.4500	   6.0000	  0.0000	 
  0.4500	   6.5450	  0.0000	 
  0.4500	   7.0900	  0.0000	 
  0.4500	   7.6350	  0.0000	 
  0.4500	   8.1800	  0.0000	 
  0.4500	   8.7250	  0.0000	 
  0.4500	   9.2700	  0.0000	 
  0.4500	   9.8150	  0.0000	 
  0.4500	  10.3600	  0.0000	 
  0.4500	  10.9050	  0.0000	 
  0.6750	   1.3425	  0.0000	 
  0.6750	   1.8600	  0.0000	 
  0.6750	   2.3775	  0.0000	 
  0.6750	   2.8950	  0.0000	 
  0.6750	   3.4125	  0.0000	 
  0.6750	   3.9300	  0.0000	 
  0.6750	   4.4475	  0.0000	 
  0.6750	   4.9650	  0.0000	 
  0.6750	   5.4825	  0.0000	 
  0.6750	   6.0000	  0.0000	 
  0.6750	   6.5175	  0.0000	 
  0.6750	   7.0350	  0.0000	 
  0.6750	   7.5525	  0.0000	 
  0.6750	   8.0700	  0.0000	 
  0.6750	   8.5875	  0.0000	 
  0.6750	   9.1050	  0.0000	 
  0.6750	   9.6225	  0.0000	 
  0.6750	  10.1400	  0.0000	 
  0.6750	  10.6575	  0.0000	 
  0.9000	   1.5900	  0.0000	 
  0.9000	   2.0800	  0.0000	 
  0.9000	   2.5700	  0.0000	 
  0.9000	   3.0600	  0.0000	 
  0.9000	   3.5500	  0.0000	 
  0.9000	   4.0400	  0.0000	 
  0.9000	   4.5300	  0.0000	 
  0.9000	   5.0200	  0.0000	 
  0.9000	   5.5100	  0.0000	 
  0.9000	   6.0000	  0.0000	 
  0.9000	   6.4900	  0.0000	 
  0.9000	   6.9800	  0.0000	 
  0.9000	   7.4700	  0.0000	 
  0.9000	   7.9600	  0.0000	 
  0.9000	   8.4500	  0.0000	 
  0.9000	   8.9400	  0.0000	 
  0.9000	   9.4300	  0.0000	 
  0.9000	   9.9200	  0.0000	 
  0.9000	  10.4100	  0.0000	 
  1.1250	   1.8375	  0.0000	 
  1.1250	   2.3000	  0.0000	 
  1.1250	   2.7625	  0.0000	 
  1.1250	   3.2250	  0.0000	 
  1.1250	   3.6875	  0.0000	 
  1.1250	   4.1500	  0.0000	 
  1.1250	   4.6125	  0.0000	 
  1.1250	   5.0750	  0.0000	 
  1.1250	   5.5375	  0.0000	 
  1.1250	   6.0000	  0.0000	 
  1.1250	   6.4625	  0.0000	 
  1.1250	   6.9250	  0.0000	 
  1.1250	   7.3875	  0.0000	 
  1.1250	   7.8500	  0.0000	 
  1.1250	   8.3125	  0.0000	 
  1.1250	   8.7750	  0.0000	 
  1.1250	   9.2375	  0.0000	 
  1.1250	   9.7000	  0.0000	 
  1.1250	  10.1625	  0.0000	 
  1.3500	   2.0850	  0.0000	 
  1.3500	   2.5200	  0.0000	 
  1.3500	   2.9550	  0.0000	 
  1.3500	   3.3900	  0.0000	 
  1.3500	   3.8250	  0.0000	 
  1.3500	   4.2600	  0.0000	 
  1.3500	   4.6950	  0.0000	 
  1.3500	   5.1300	  0.0000	 
  1.3500	   5.5650	  0.0000	 
  1.3500	   6.0000	  0.0000	 
  1.3500	   6.4350	  0.0000	 
  1.3500	   6.8700	  0.0000	 
  1.3500	   7.3050	  0.0000	 
  1.3500	   7.7400	  0.0000	 
  1.3500	   8.1750	  0.0000	 
  1.3500	   8.6100	  0.0000	 
  1.3500	   9.0450	  0.0000	 
  1.3500	   9.4800	  0.0000	 
  1.3500	   9.9150	  0.0000	 
  1.5750	   2.3325	  0.0000	 
  1.5750	   2.7400	  0.0000	 
  1.5750	   3.1475	  0.0000	 
  1.5750	   3.5550	  0.0000	 
  1.5750	   3.9625	  0.0000	 
  1.5750	   4.3700	  0.0000	 
  1.5750	   4.7775	  0.0000	 
  1.5750	   5.1850	  0.0000	 
  1.5750	   5.5925	  0.0000	 
  1.5750	   6.0000	  0.0000	 
  1.5750	   6.4075	  0.0000	 
  1.5750	   6.8150	  0.0000	 
  1.5750	   7.2225	  0.0000	 
  1.5750	   7.6300	  0.0000	 
  1.5750	   8.0375	  0.0000	 
  1.5750	   8.4450	  0.0000	 
  1.5750	   8.8525	  0.0000	 
  1.5750	   9.2600	  0.0000	 
  1.5750	   9.6675	  0.0000	 
  1.8000	   2.5800	  0.0000	 
  1.8000	   2.9600	  0.0000	 
  1.8000	   3.3400	  0.0000	 
  1.8000	   3.7200	  0.0000	 
  1.8000	   4.1000	  0.0000	 
  1.8000	   4.4800	  0.0000	 
  1.8000	   4.8600	  0.0000	 
  1.8000	   5.2400	  0.0000	 
  1.8000	   5.6200	  0.0000	 
  1.8000	   6.0000	  0.0000	 
  1.8000	   6.3800	  0.0000	 
  1.8000	   6.7600	  0.0000	 
  1.8000	   7.1400	  0.0000	 
  1.8000	   7.5200	  0.0000	 
  1.8000	   7.9000	  0.0000	 
  1.8000	   8.2800	  0.0000	 
  1.8000	   8.6600	  0.0000	 
  1.8000	   9.0400	  0.0000	 
  1.8000	   9.4200	  0.0000	 
  2.0250	   2.8275	  0.0000	 
  2.0250	   3.1800	  0.0000	 
  2.0250	   3.5325	  0.0000	 
  2.0250	   3.8850	  0.0000	 
  2.0250	   4.2375	  0.0000	 
  2.0250	   4.5900	  0.0000	 
  2.0250	   4.9425	  0.0000	 
  2.0250	   5.2950	  0.0000	 
  2.0250	   5.6475	  0.0000	 
  2.0250	   6.0000	  0.0000	 
  2.0250	   6.3525	  0.0000	 
  2.0250	   6.7050	  0.0000	 
  2.0250	   7.0575	  0.0000	 
  2.0250	   7.4100	  0.0000	 
  2.0250	   7.7625	  0.0000	 
  2.0250	   8.1150	  0.0000	 
  2.0250	   8.4675	  0.0000	 
  2.0250	   8.8200	  0.0000	 
  2.0250	   9.1725	  0.0000	 
  2.2500	   3.0750	  0.0000	 
  2.2500	   3.4000	  0.0000	 
  2.2500	   3.7250	  0.0000	 
  2.2500	   4.0500	  0.0000	 
  2.2500	   4.3750	  0.0000	 
  2.2500	   4.7000	  0.0000	 
  2.2500	   5.0250	  0.0000	 
  2.2500	   5.3500	  0.0000	 
  2.2500	   5.6750	  0.0000	 
  2.2500	   6.0000	  0.0000	 
  2.2500	   6.3250	  0.0000	 
  2.2500	   6.6500	  0.0000	 
  2.2500	   6.9750	  0.0000	 
  2.2500	   7.3000	  0.0000	 
  2.2500	   7.6250	  0.0000	 
  2.2500	   7.9500	  0.0000	 
  2.2500	   8.2750	  0.0000	 
  2.2500	   8.6000	  0.0000	 
  2.2500	   8.9250	  0.0000	 
  2.4750	   3.3225	  0.0000	 
  2.4750	   3.6200	  0.0000	 
  2.4750	   3.9175	  0.0000	 
  2.4750	   4.2150	  0.0000	 
  2.4750	   4.5125	  0.0000	 
  2.4750	   4.8100	  0.0000	 
  2.4750	   5.1075	  0.0000	 
  2.4750	   5.4050	  0.0000	 
  2.4750	   5.7025	  0.0000	 
  2.4750	   6.0000	  0.0000	 
  2.4750	   6.2975	  0.0000	 
  2.4750	   6.5950	  0.0000	 
  2.4750	   6.8925	  0.0000	 
  2.4750	   7.1900	  0.0000	 
  2.4750	   7.4875	  0.0000	 
  2.4750	   7.7850	  0.0000	 
  2.4750	   8.0825	  0.0000	 
  2.4750	   8.3800	  0.0000	 
  2.4750	   8.6775	  0.0000	 
  2.7000	   3.5700	  0.0000	 
  2.7000	   3.8400	  0.0000	 
  2.7000	   4.1100	  0.0000	 
  2.7000	   4.3800	  0.0000	 
  2.7000	   4.6500	  0.0000	 
  2.7000	   4.9200	  0.0000	 
  2.7000	   5.1900	  0.0000	 
  2.7000	   5.4600	  0.0000	 
  2.7000	   5.7300	  0.0000	 
  2.7000	   6.0000	  0.0000	 
  2.7000	   6.2700	  0.0000	 
  2.7000	   6.5400	  0.0000	 
  2.7000	   6.8100	  0.0000	 
  2.7000	   7.0800	  0.0000	 
  2.7000	   7.3500	  0.0000	 
  2.7000	   7.6200	  0.0000	 
  2.7000	   7.8900	  0.0000	 
  2.7000	   8.1600	  0.0000	 
  2.7000	   8.4300	  0.0000	 
  2.9250	   3.8175	  0.0000	 
  2.9250	   4.0600	  0.0000	 
  2.9250	   4.3025	  0.0000	 
  2.9250	   4.5450	  0.0000	 
  2.9250	   4.7875	  0.0000	 
  2.9250	   5.0300	  0.0000	 
  2.9250	   5.2725	  0.0000	 
  2.9250	   5.5150	  0.0000	 
  2.9250	   5.7575	  0.0000	 
  2.9250	   6.0000	  0.0000	 
  2.9250	   6.2425	  0.0000	 
  2.9250	   6.4850	  0.0000	 
  2.9250	   6.7275	  0.0000	 
  2.9250	   6.9700	  0.0000	 
  2.9250	   7.2125	  0.0000	 
  2.9250	   7.4550	  0.0000	 
  2.9250	   7.6975	  0.0000	 
  2.9250	   7.9400	  0.0000	 
  2.9250	   8.1825	  0.0000	 
  3.1500	   4.0650	  0.0000	 
  3.1500	   4.2800	  0.0000	 
  3.1500	   4.4950	  0.0000	 
  3.1500	   4.7100	  0.0000	 
  3.1500	   4.9250	  0.0000	 
  3.1500	   5.1400	  0.0000	 
  3.1500	   5.3550	  0.0000	 
  3.1500	   5.5700	  0.0000	 
  3.1500	   5.7850	  0.0000	 
  3.1500	   6.0000	  0.0000	 
  3.1500	   6.2150	  0.0000	 
  3.1500	   6.4300	  0.0000	 
  3.1500	   6.6450	  0.0000	 
  3.1500	   6.8600	  0.0000	 
  3.1500	   7.0750	  0.0000	 
  3.1500	   7.2900	  0.0000	 
  3.1500	   7.5050	  0.0000	 
  3.1500	   7.7200	  0.0000	 
  3.1500	   7.9350	  0.0000	 
  3.3750	   4.3125	  0.0000	 
  3.3750	   4.5000	  0.0000	 
  3.3750	   4.6875	  0.0000	 
  3.3750	   4.8750	  0.0000	 
  3.3750	   5.0625	  0.0000	 
  3.3750	   5.2500	  0.0000	 
  3.3750	   5.4375	  0.0000	 
  3.3750	   5.6250	  0.0000	 
  3.3750	   5.8125	  0.0000	 
  3.3750	   6.0000	  0.0000	 
  3.3750	   6.1875	  0.0000	 
  3.3750	   6.3750	  0.0000	 
  3.3750	   6.5625	  0.0000	 
  3.3750	   6.7500	  0.0000	 
  3.3750	   6.9375	  0.0000	 
  3.3750	   7.1250	  0.0000	 
  3.3750	   7.3125	  0.0000	 
  3.3750	   7.5000	  0.0000	 
  3.3750	   7.6875	  0.0000	 
  3.6000	   4.5600	  0.0000	 
  3.6000	   4.7200	  0.0000	 
  3.6000	   4.8800	  0.0000	 
  3.6000	   5.0400	  0.0000	 
  3.6000	   5.2000	  0.0000	 
  3.6000	   5.3600	  0.0000	 
  3.6000	   5.5200	  0.0000	 
  3.6000	   5.6800	  0.0000	 
  3.6000	   5.8400	  0.0000	 
  3.6000	   6.0000	  0.0000	 
  3.6000	   6.1600	  0.0000	 
  3.6000	   6.3200	  0.0000	 
  3.6000	   6.4800	  0.0000	 
  3.6000	   6.6400	  0.0000	 
  3.6000	   6.8000	  0.0000	 
  3.6000	   6.9600	  0.0000	 
  3.6000	   7.1200	  0.0000	 
  3.6000	   7.2800	  0.0000	 
  3.6000	   7.4400	  0.0000	 
  3.8250	   4.8075	  0.0000	 
  3.8250	   4.9400	  0.0000	 
  3.8250	   5.0725	  0.0000	 
  3.8250	   5.2050	  0.0000	 
  3.8250	   5.3375	  0.0000	 
  3.8250	   5.4700	  0.0000	 
  3.8250	   5.6025	  0.0000	 
[...]
POINT_DATA 	    1451 
VECTORS U float 
 50.0000	   0.0000	   0.0000	
 50.0000	   0.0000	   0.0000	
 50.0000	   0.0000	   0.0000	
 50.0000	   0.0000	   0.0000	
 50.0000	  -0.0000	   0.0000	
 50.0000	  -0.0000	   0.0000	
 50.0000	   0.0000	   0.0000	
 50.0000	  -0.0000	   0.0000	
 50.0000	  -0.0000	   0.0000	
 50.0000	   0.0000	   0.0000	
 50.0000	  -0.0000	   0.0000	
 50.0000	  -0.0000	   0.0000	
 50.0000	   0.0000	   0.0000	
 50.0000	   0.0000	   0.0000	
 50.0000	  -0.0000	   0.0000	
 50.0000	  -0.0000	   0.0000	
 50.0000	   0.0000	   0.0000	
 50.0000	   0.0000	   0.0000	
 50.0000	  -0.0000	   0.0000	
 49.1282	   6.0179	   0.0000	
 50.3096	   7.2534	   0.0000	
 50.2048	  11.4631	   0.0000	
 49.8229	  18.6595	   0.0000	
 50.0300	  10.8296	   0.0000	
 49.6372	  20.8318	   0.0000	
 49.2802	  25.3050	   0.0000	
 49.1431	  31.4765	   0.0000	
 49.7669	  34.9444	   0.0000	
 50.0672	  36.4541	   0.0000	
 49.6860	  36.0289	   0.0000	
 50.8627	  35.2488	   0.0000	
 50.4179	  29.8802	   0.0000	
 50.4484	  26.5467	   0.0000	
 50.2571	  24.6760	   0.0000	
 49.9739	  16.7476	   0.0000	
 50.1057	  19.5370	   0.0000	
 49.1970	  16.9718	   0.0000	
 50.5095	  16.4322	   0.0000	
 49.3986	  11.8961	   0.0000	
 46.1605	  19.7933	   0.0000	
 44.4377	  33.0849	   0.0000	
 56.2073	  24.2645	   0.0000	
 42.7171	  35.7003	   0.0000	
 46.6688	  39.8083	   0.0000	
 45.2364	  51.4503	   0.0000	
 46.8011	  59.9952	   0.0000	
 48.4690	  64.1195	   0.0000	
 49.2080	  66.3688	   0.0000	
 50.3579	  67.4911	   0.0000	
 51.1454	  66.7819	   0.0000	
 54.5973	  62.1800	   0.0000	
 52.7276	  49.3218	   0.0000	
 50.5382	  47.9470	   0.0000	
 55.8352	  45.0570	   0.0000	
 47.7470	  34.2214	   0.0000	
 52.5379	  36.1295	   0.0000	
 50.9366	  34.7571	   0.0000	
 43.6446	  20.8826	   0.0000	
 39.5190	  44.0346	   0.0000	
 53.6431	  36.5916	   0.0000	
 46.4688	  49.0196	   0.0000	
 43.8062	  49.5529	   0.0000	
 40.9809	  60.4934	   0.0000	
 42.0185	  68.4788	   0.0000	
 45.3774	  71.2513	   0.0000	
 47.6513	  73.7740	   0.0000	
 47.6608	  76.5545	   0.0000	
 49.9142	  81.2694	   0.0000	
 51.0775	  81.4140	   0.0000	
 55.4619	  84.3135	   0.0000	
 59.9485	  79.8644	   0.0000	
 51.6586	  66.5477	   0.0000	
 54.0505	  65.3662	   0.0000	
 56.6946	  63.7129	   0.0000	
 49.5153	  52.7328	   0.0000	
 49.2797	  52.0811	   0.0000	
 24.8133	  46.4222	   0.0000	
 48.8602	  45.8113	   0.0000	
 47.5710	  56.8227	   0.0000	
 43.6185	  62.9848	   0.0000	
 38.9437	  62.0533	   0.0000	
 38.8008	  65.0545	   0.0000	
 41.3635	  66.0744	   0.0000	
 44.6968	  68.7919	   0.0000	
 46.6715	  70.5047	   0.0000	
 47.2423	  71.7826	   0.0000	
 47.5198	  71.9915	   0.0000	
 50.3883	  77.8634	   0.0000	
 53.2045	  78.0760	   0.0000	
 59.8059	  81.9117	   0.0000	
 59.5663	  82.8523	   0.0000	
 52.7442	  79.5484	   0.0000	
 57.9506	  82.2419	   0.0000	
 54.7164	  79.7151	   0.0000	
 54.1959	  67.4511	   0.0000	
 39.5640	  50.7619	   0.0000	
 43.7896	  64.9116	   0.0000	
 41.0356	  71.1383	   0.0000	
 45.6005	  71.5062	   0.0000	
 38.0167	  67.6028	   0.0000	
 39.1782	  66.1010	   0.0000	
 40.7389	  67.9772	   0.0000	
 44.2834	  68.9850	   0.0000	
 45.8430	  70.9026	   0.0000	
 46.3122	  72.7070	   0.0000	
 47.9196	  74.5073	   0.0000	
 47.2249	  73.2055	   0.0000	
 52.5173	  79.7452	   0.0000	
 57.0866	  78.6641	   0.0000	
 58.7606	  84.0040	   0.0000	
 52.4109	  91.2881	   0.0000	
 53.6776	  92.0893	   0.0000	
 57.9454	  97.0171	   0.0000	
 60.8827	  98.4711	   0.0000	
 36.0206	  69.5590	   0.0000	
 42.0050	  77.7623	   0.0000	
 43.0560	  73.4452	   0.0000	
 45.5041	  75.3412	   0.0000	
 39.1991	  69.0742	   0.0000	
 38.8586	  69.6591	   0.0000	
 41.1434	  69.3510	   0.0000	
 43.4841	  71.4274	   0.0000	
 45.1839	  73.3083	   0.0000	
 44.9267	  75.8300	   0.0000	
 46.7994	  78.8177	   0.0000	
 47.9738	  80.6288	   0.0000	
 47.9897	  79.5126	   0.0000	
 56.4280	  85.8351	   0.0000	
 55.9089	  86.1958	   0.0000	
 50.1299	  95.2996	   0.0000	
 51.6601	  99.2897	   0.0000	
 53.0184	 104.3220	   0.0000	
 52.5346	 115.1567	   0.0000	
 36.3508	  64.5265	   0.0000	
 45.0933	  66.6131	   0.0000	
 42.9780	  65.4023	   0.0000	
 45.6659	  67.4902	   0.0000	
 38.5170	  65.8876	   0.0000	
 39.7084	  64.9442	   0.0000	
 40.1835	  67.1131	   0.0000	
 42.6328	  69.7981	   0.0000	
 43.6390	  72.7021	   0.0000	
 44.2669	  74.1084	   0.0000	
 45.3636	  74.9194	   0.0000	
 46.6056	  77.7068	   0.0000	
 48.7770	  79.5534	   0.0000	
 51.0614	  76.6963	   0.0000	
 56.1549	  84.0309	   0.0000	
 48.8034	  85.9055	   0.0000	
 48.7461	  87.7250	   0.0000	
 49.8377	  91.5187	   0.0000	
 46.0629	 101.0946	   0.0000	
 40.5176	  59.7276	   0.0000	
 44.7039	  64.1746	   0.0000	
 42.4831	  63.5445	   0.0000	
 43.1984	  69.5919	   0.0000	
 39.3785	  65.7972	   0.0000	
 38.4415	  67.4864	   0.0000	
 39.1704	  69.7171	   0.0000	
 41.1668	  72.3948	   0.0000	
 42.8714	  74.1872	   0.0000	
 42.9932	  76.3028	   0.0000	
 45.0028	  78.4492	   0.0000	
 44.7993	  78.5474	   0.0000	
 47.2119	  81.7115	   0.0000	
 52.5649	  81.8650	   0.0000	
 50.5339	  79.4690	   0.0000	
 51.0811	  89.2882	   0.0000	
 48.5652	  85.7195	   0.0000	
 47.5727	  86.1379	   0.0000	
 42.7918	  94.5993	   0.0000	
 40.8253	  58.6920	   0.0000	
 43.3721	  63.2736	   0.0000	
 39.0568	  65.3676	   0.0000	
 43.8287	  67.5820	   0.0000	
 37.8408	  66.6602	   0.0000	
 37.4763	  68.1875	   0.0000	
 37.9399	  70.2383	   0.0000	
 40.3287	  72.3045	   0.0000	
 41.4226	  74.9039	   0.0000	
 41.5435	  77.3172	   0.0000	
 43.7667	  79.5170	   0.0000	
 44.8064	  81.2205	   0.0000	
 44.7605	  81.2773	   0.0000	
 50.9759	  82.8555	   0.0000	
 53.2112	  83.6899	   0.0000	
 44.8115	  84.0565	   0.0000	
 51.6388	  90.0654	   0.0000	
 49.0192	  87.0190	   0.0000	
 40.5819	  91.6579	   0.0000	
 39.5529	  59.2807	   0.0000	
 39.4783	  65.0798	   0.0000	
 40.3984	  63.7088	   0.0000	
 41.3852	  68.0582	   0.0000	
 36.5023	  67.5217	   0.0000	
 36.3385	  69.0047	   0.0000	
 37.0039	  70.8608	   0.0000	
 38.7028	  73.7740	   0.0000	
 39.8743	  76.4215	   0.0000	
 40.3812	  77.9987	   0.0000	
 42.5312	  79.1799	   0.0000	
 43.3842	  80.4926	   0.0000	
 44.8896	  82.1590	   0.0000	
 48.3873	  79.9079	   0.0000	
 51.6785	  82.1356	   0.0000	
 49.1893	  85.2174	   0.0000	
 43.1206	  83.5349	   0.0000	
 52.6540	  88.8653	   0.0000	
 44.4307	  90.1223	   0.0000	
 35.8097	  61.7922	   0.0000	
 41.4990	  63.3643	   0.0000	
 37.5492	  63.5637	   0.0000	
 39.2651	  67.9575	   0.0000	
 35.1551	  67.5536	   0.0000	
 35.1874	  69.3312	   0.0000	
 35.4902	  71.3544	   0.0000	
 37.0323	  73.6866	   0.0000	
 38.6352	  75.6923	   0.0000	
 38.5304	  78.2390	   0.0000	
 42.0461	  80.7657	   0.0000	
 42.2972	  80.9766	   0.0000	
 43.6776	  82.3422	   0.0000	
 49.0938	  81.5872	   0.0000	
 48.5938	  80.7429	   0.0000	
 48.4987	  85.6315	   0.0000	
 47.3048	  87.3915	   0.0000	
 42.7222	  86.4368	   0.0000	
 49.6536	  93.0035	   0.0000	
 39.8264	  60.8909	   0.0000	
 38.0679	  63.9562	   0.0000	
 35.3085	  65.3515	   0.0000	
 36.8380	  69.3549	   0.0000	
 33.7612	  69.6276	   0.0000	
 33.8179	  71.3260	   0.0000	
 34.1487	  73.2021	   0.0000	
 35.8023	  75.2614	   0.0000	
 36.4923	  78.1937	   0.0000	
 35.9625	  81.4942	   0.0000	
 39.7920	  84.4334	   0.0000	
 42.1458	  86.3895	   0.0000	
 42.5415	  86.2105	   0.0000	
 47.6175	  85.0228	   0.0000	
 49.3756	  86.1548	   0.0000	
 44.4966	  88.3978	   0.0000	
 45.6693	  93.2287	   0.0000	
 48.8403	  91.4491	   0.0000	
 38.4359	  91.0947	   0.0000	
 35.8524	  57.6104	   0.0000	
 33.5352	  60.0033	   0.0000	
 32.7494	  62.8007	   0.0000	
 34.1111	  68.0312	   0.0000	
 31.7663	  69.7773	   0.0000	
 32.5101	  71.9048	   0.0000	
 32.2853	  74.1795	   0.0000	
 33.2398	  77.7931	   0.0000	
 33.2572	  81.9387	   0.0000	
 36.5566	  81.2988	   0.0000	
 37.7722	  80.1114	   0.0000	
 39.7805	  82.0225	   0.0000	
 42.9852	  84.2464	   0.0000	
 46.8972	  81.9974	   0.0000	
 46.7837	  83.8490	   0.0000	
 45.6634	  87.8587	   0.0000	
 40.6041	  89.9035	   0.0000	
 49.9920	  86.4559	   0.0000	
 51.0149	  79.7522	   0.0000	
 31.1638	  60.2347	   0.0000	
 29.1709	  62.3317	   0.0000	
 28.4058	  65.9471	   0.0000	
 31.0217	  69.7113	   0.0000	
 29.4576	  71.0138	   0.0000	
 29.9246	  74.0371	   0.0000	
 29.3622	  76.7469	   0.0000	
 29.0566	  79.9440	   0.0000	
 34.4202	  79.4731	   0.0000	
 33.3377	  81.4068	   0.0000	
 39.5672	  85.0829	   0.0000	
 36.9902	  82.9600	   0.0000	
 40.2699	  84.7842	   0.0000	
 46.9572	  84.1444	   0.0000	
 43.2273	  87.0620	   0.0000	
 42.5911	  92.4178	   0.0000	
 42.5351	  95.4846	   0.0000	
 47.7491	  87.5614	   0.0000	
 57.0290	  78.8877	   0.0000	
 26.2783	  58.2218	   0.0000	
 22.7140	  64.3177	   0.0000	
 27.0400	  68.1926	   0.0000	
 28.4116	  72.0785	   0.0000	
 26.4053	  74.0828	   0.0000	
 27.2212	  76.4917	   0.0000	
 26.7309	  77.7698	   0.0000	
 32.3479	  75.4144	   0.0000	
 32.9020	  75.6869	   0.0000	
 26.2717	  81.6845	   0.0000	
 34.2765	  88.0344	   0.0000	
 39.5990	  91.8736	   0.0000	
 38.7724	  89.9951	   0.0000	
 41.8431	  91.1239	   0.0000	
 41.8676	  98.1795	   0.0000	
 36.4145	 103.7073	   0.0000	
 41.5733	 102.3624	   0.0000	
 55.5439	  91.2124	   0.0000	
 55.5045	  79.9218	   0.0000	
 19.7214	  54.2171	   0.0000	
 22.6228	  57.5893	   0.0000	
 12.8192	  67.2270	   0.0000	
 21.7982	  80.4575	   0.0000	
 23.6363	  85.6605	   0.0000	
 25.9654	  88.1985	   0.0000	
 32.4977	  86.5642	   0.0000	
 32.5030	  86.4027	   0.0000	
 23.4493	  93.2452	   0.0000	
 29.7475	  91.1895	   0.0000	
 25.9012	  88.3557	   0.0000	
 31.0719	  95.4069	   0.0000	
 41.9916	 100.3344	   0.0000	
 36.5919	  98.5095	   0.0000	
 32.1602	 105.6675	   0.0000	
 34.7512	 108.6401	   0.0000	
 50.3615	  97.3345	   0.0000	
 48.1846	  86.0785	   0.0000	
 66.3205	  72.9892	   0.0000	
  3.0893	  47.0998	   0.0000	
 -2.6902	  54.6609	   0.0000	
 11.6560	  63.1707	   0.0000	
 15.6188	  69.2054	   0.0000	
 21.3609	  73.4070	   0.0000	
 32.7068	  74.4776	   0.0000	
 32.1946	  74.4919	   0.0000	
 17.9943	  79.7920	   0.0000	
 26.9698	  79.7646	   0.0000	
 20.8810	  84.0156	   0.0000	
 30.8565	  90.3671	   0.0000	
 16.5459	  89.2716	   0.0000	
 26.6708	  98.0239	   0.0000	
 43.2826	 102.1454	   0.0000	
 23.4470	 111.4279	   0.0000	
 32.7410	 117.6591	   0.0000	
 34.5356	 111.0529	   0.0000	
 64.9451	 103.6479	   0.0000	
 73.5801	  86.0497	   0.0000	
 -5.1176	  60.7365	   0.0000	
  3.5607	  69.0059	   0.0000	
  8.4389	  74.9209	   0.0000	
 22.4546	  79.5404	   0.0000	
 32.0815	  83.6937	   0.0000	
 27.7335	  83.3155	   0.0000	
 11.3037	  91.6585	   0.0000	
 20.2263	  95.5349	   0.0000	
 17.0905	 101.9154	   0.0000	
 12.8678	 106.9042	   0.0000	
 15.4918	 111.3555	   0.0000	
 21.7094	 119.4160	   0.0000	
  2.4616	 124.2996	   0.0000	
 20.3082	 130.2261	   0.0000	
 14.2425	 144.7404	   0.0000	
  8.1279	 156.4148	   0.0000	
 26.3054	 150.1050	   0.0000	
 56.5937	 132.3765	   0.0000	
 68.2934	 106.7917	   0.0000	
 -2.5028	  30.4044	   0.0000	
  4.2197	  36.1720	   0.0000	
 14.5978	  43.0385	   0.0000	
 25.2829	  50.7893	   0.0000	
  0.5459	  59.5696	   0.0000	
  0.5263	  60.3597	   0.0000	
  8.0668	  64.4891	   0.0000	
  0.6458	  68.2797	   0.0000	
  6.3044	  71.7627	   0.0000	
  0.4675	  74.6739	   0.0000	
  5.8375	  77.5441	   0.0000	
  0.7305	  80.7058	   0.0000	
  6.6475	  84.1081	   0.0000	
 -0.9909	  86.6778	   0.0000	
  0.0241	  85.9924	   0.0000	
 -6.2128	  90.6538	   0.0000	
 -0.4003	  88.8778	   0.0000	
 22.1800	  84.8786	   0.0000	
 57.8903	  75.0806	   0.0000	
 -0.0000	  -0.0000	   0.0000	
  0.0000	   0.0000	   0.0000	
 -0.0000	   0.0000	   0.0000	
 -0.0000	   0.0000	   0.0000	
  0.0000	  -0.0000	   0.0000	
 -0.0000	   0.0000	   0.0000	
  0.0000	   0.0000	   0.0000	
  0.0000	  -0.0000	   0.0000	
 -0.0000	  -0.0000	   0.0000	
  0.0000	   0.0000	   0.0000	
  0.0000	   0.0000	   0.0000	
  0.0000	  -0.0000	   0.0000	
 -0.0000	   0.0000	   0.0000	
 -0.0000	   0.0000	   0.0000	
 -0.0000	  -0.0000	   0.0000	
 -0.0000	  -0.0000	   0.0000	
  0.0000	  -0.0000	   0.0000	
 -0.0000	  -0.0000	   0.0000	
  0.0000	   0.0000	   0.0000	
 50.0000	  50.0000	   0.0000	
 50.0000	  -0.0000	   0.0000	
 68.3678	  50.0859	   0.0000	
 49.9954	  16.1279	   0.0000	
 86.2326	  50.0886	   0.0000	
 49.7744	  32.3934	   0.0000	
 82.7169	  55.0570	   0.0000	
 52.2706	  49.0629	   0.0000	
 80.4087	  59.4834	   0.0000	
 54.3739	  66.0054	   0.0000	
 51.8815	  79.5084	   0.0000	
 49.5409	  78.7411	   0.0000	
 49.3588	  78.3499	   0.0000	
 77.5358	 104.4826	   0.0000	
 45.4092	  76.8405	   0.0000	
 66.8009	  93.1449	   0.0000	
 46.1324	  72.7465	   0.0000	
 57.1289	  83.8921	   0.0000	
 49.2481	  67.8657	   0.0000	
 54.2739	  79.6307	   0.0000	
 47.8556	  66.1161	   0.0000	
 51.8949	  76.2556	   0.0000	
 44.2789	  65.3017	   0.0000	
 56.5910	  76.8990	   0.0000	
 38.7895	  64.7907	   0.0000	
 63.5078	  77.6969	   0.0000	
 41.6363	  59.1510	   0.0000	
 49.2070	  67.9241	   0.0000	
 34.6848	  57.3592	   0.0000	
 60.3252	  69.6907	   0.0000	
 27.4958	  54.9867	   0.0000	
 66.8478	  68.3635	   0.0000	
 17.5726	  52.4987	   0.0000	
 68.7833	  63.6165	   0.0000	
 18.7517	  41.1567	   0.0000	
 78.4923	  60.5427	   0.0000	
-19.8526	  49.8799	   0.0000	
111.1886	  69.4429	   0.0000	
 -9.7691	  23.6817	   0.0000	
107.1458	  48.7567	   0.0000	
 -0.0000	   0.0000	   0.0000	
 -0.0000	  -0.0000	   0.0000	
 50.4450	  50.0000	   0.0000	
 87.1406	 155.9098	   0.0000	
 48.0836	  49.3783	   0.0000	
 51.8099	 138.7506	   0.0000	
 46.0681	  48.9154	   0.0000	
 35.5535	 123.3316	   0.0000	
 45.7412	  47.5024	   0.0000	
 24.9718	 110.2358	   0.0000	
 43.4461	  47.1619	   0.0000	
 25.6798	 104.5242	   0.0000	
 43.6114	  45.9130	   0.0000	
 24.8551	  99.7318	   0.0000	
 43.7941	  45.4230	   0.0000	
 25.8745	  96.3911	   0.0000	
 44.5821	  44.3487	   0.0000	
 25.7236	  92.5394	   0.0000	
 43.5144	  43.8780	   0.0000	
 28.4159	  89.4430	   0.0000	
 40.1404	  44.2681	   0.0000	
 31.8045	  86.2147	   0.0000	
 40.5019	  42.7840	   0.0000	
 36.7573	  83.5168	   0.0000	
 46.2667	  39.3165	   0.0000	
 27.3890	  75.4203	   0.0000	
 40.9975	  39.6519	   0.0000	
 36.6408	  74.1528	   0.0000	
 40.7832	  36.7817	   0.0000	
 39.1495	  68.9449	   0.0000	
 38.6825	  32.9242	   0.0000	
 40.5135	  62.9980	   0.0000	
 41.2158	  27.2873	   0.0000	
 45.7430	  55.0364	   0.0000	
 23.2626	  26.4900	   0.0000	
 64.9472	  50.3445	   0.0000	
 18.4171	  18.9444	   0.0000	
 68.9153	  38.1998	   0.0000	
 35.8612	   2.6776	   0.0000	
 61.3608	  21.3910	   0.0000	
 25.4404	   0.4991	   0.0000	
 -1.9940	  -1.3614	   0.0000	
 -0.0000	   0.0000	   0.0000	
 -0.0000	  -0.0000	   0.0000	
 56.2479	  50.0000	   0.0000	
-43.9157	  67.6663	   0.0000	
 51.9450	  50.7942	   0.0000	
-12.2345	  69.1811	   0.0000	
 49.4533	  51.1399	   0.0000	
  2.7703	  69.0738	   0.0000	
 46.8621	  51.9571	   0.0000	
 10.2758	  68.6311	   0.0000	
 47.1089	  52.2016	   0.0000	
 12.2696	  67.2943	   0.0000	
 47.6862	  52.6205	   0.0000	
 12.6557	  66.0355	   0.0000	
 47.1596	  53.3721	   0.0000	
 14.0328	  64.5170	   0.0000	
 46.7784	  53.2838	   0.0000	
 15.9483	  62.6677	   0.0000	
 46.3724	  54.0682	   0.0000	
 17.3975	  61.0646	   0.0000	
 45.3450	  54.6786	   0.0000	
 20.4412	  59.9820	   0.0000	
 50.9198	  54.3655	   0.0000	
 15.3864	  58.2049	   0.0000	
 50.9608	  54.7522	   0.0000	
 17.1309	  55.4582	   0.0000	
 55.0492	  54.7980	   0.0000	
 17.9420	  52.6719	   0.0000	
 57.1107	  55.4393	   0.0000	
  9.4984	  48.9615	   0.0000	
 60.4885	  55.6068	   0.0000	
 13.6525	  46.1392	   0.0000	
 61.7133	  52.8656	   0.0000	
 17.9378	  39.9200	   0.0000	
 60.2306	  51.5821	   0.0000	
 22.7834	  35.4089	   0.0000	
 65.7929	  51.6177	   0.0000	
 26.7344	  31.3477	   0.0000	
 62.8888	  50.3744	   0.0000	
  1.3403	  31.3963	   0.0000	
 38.6179	  49.7773	   0.0000	
  2.7583	  36.7902	   0.0000	
 28.2030	  47.1086	   0.0000	
 -0.2129	  39.2282	   0.0000	
 44.5048	  50.0000	   0.0000	
 11.5411	  54.5672	   0.0000	
 45.6224	  50.9039	   0.0000	
 -2.3580	  59.7398	   0.0000	
 43.8669	  51.1491	   0.0000	
  1.5041	  60.3246	   0.0000	
 42.1587	  51.1783	   0.0000	
  5.2017	  59.7710	   0.0000	
 42.1892	  51.6585	   0.0000	
  6.4564	  59.6809	   0.0000	
 42.5147	  52.1922	   0.0000	
  7.1981	  59.7141	   0.0000	
 40.9230	  52.3130	   0.0000	
 10.1820	  58.9587	   0.0000	
 41.4750	  53.1739	   0.0000	
  8.7751	  59.9007	   0.0000	
 42.7294	  53.7757	   0.0000	
 11.1322	  59.1345	   0.0000	
 42.0703	  54.4749	   0.0000	
 13.0852	  58.8294	   0.0000	
 43.7933	  55.7940	   0.0000	
 14.1763	  59.0851	   0.0000	
 43.6126	  56.5891	   0.0000	
 12.7616	  59.0635	   0.0000	
 44.8060	  58.5030	   0.0000	
  7.5949	  60.9373	   0.0000	
 46.4125	  60.8485	   0.0000	
 11.6126	  61.4059	   0.0000	
 46.2574	  62.3151	   0.0000	
 10.3699	  61.6022	   0.0000	
 53.4445	  67.3489	   0.0000	
  6.4919	  63.6450	   0.0000	
 50.7568	  69.9087	   0.0000	
  9.6881	  63.0600	   0.0000	
 49.6148	  73.4436	   0.0000	
 14.6065	  61.8296	   0.0000	
 51.0398	  77.2941	   0.0000	
 19.4831	  59.3549	   0.0000	
 42.7930	  82.2557	   0.0000	
 19.3014	  65.6264	   0.0000	
 22.5303	  82.6621	   0.0000	
 21.6946	  69.9804	   0.0000	
 45.2355	  50.0000	   0.0000	
 -1.2088	  45.7258	   0.0000	
 44.9909	  49.8304	   0.0000	
  2.4707	  44.9113	   0.0000	
 44.1364	  49.8206	   0.0000	
  5.1358	  44.1829	   0.0000	
 42.8652	  49.5136	   0.0000	
  8.0235	  43.4021	   0.0000	
 42.9127	  49.7425	   0.0000	
  6.7246	  45.0630	   0.0000	
 42.8545	  49.8290	   0.0000	
  5.5508	  47.0447	   0.0000	
 41.6556	  49.3458	   0.0000	
  7.0522	  47.3356	   0.0000	
 41.5941	  49.5406	   0.0000	
  7.9633	  48.3589	   0.0000	
 40.9666	  49.5456	   0.0000	
 10.0423	  48.5543	   0.0000	
 39.8792	  49.0558	   0.0000	
 11.2007	  49.0093	   0.0000	
 41.7605	  50.2716	   0.0000	
  9.7794	  50.8292	   0.0000	
 37.9544	  49.0584	   0.0000	
 15.0287	  49.3530	   0.0000	
 39.4433	  50.6588	   0.0000	
 15.1122	  50.3421	   0.0000	
 39.5787	  51.4258	   0.0000	
 13.2362	  52.1320	   0.0000	
 39.7377	  53.1580	   0.0000	
 14.7509	  53.9708	   0.0000	
 38.9740	  54.0028	   0.0000	
 14.5639	  55.1342	   0.0000	
 38.3748	  56.3655	   0.0000	
 14.7802	  57.5880	   0.0000	
 39.7186	  61.1191	   0.0000	
 14.3087	  60.8571	   0.0000	
 35.5892	  63.3062	   0.0000	
 21.4325	  60.8464	   0.0000	
 41.1271	  69.5576	   0.0000	
 17.1043	  64.3136	   0.0000	
 21.5029	  67.6937	   0.0000	
 38.1662	  58.4252	   0.0000	
 51.3164	  50.0000	   0.0000	
  0.7884	  30.8003	   0.0000	
 48.5774	  49.4255	   0.0000	
  2.2195	  32.1861	   0.0000	
 45.5611	  48.7876	   0.0000	
  3.6122	  33.5850	   0.0000	
 44.6192	  48.6933	   0.0000	
  4.8995	  34.9784	   0.0000	
 45.3976	  49.1870	   0.0000	
  7.2454	  36.0037	   0.0000	
 45.3652	  49.3659	   0.0000	
  7.9318	  37.9367	   0.0000	
 42.2063	  47.3119	   0.0000	
  8.9648	  38.9859	   0.0000	
 41.7144	  47.4494	   0.0000	
 10.1896	  39.2300	   0.0000	
 41.6340	  47.9497	   0.0000	
 10.8362	  40.0542	   0.0000	
 40.5208	  48.0054	   0.0000	
 12.1619	  41.3639	   0.0000	
 40.1913	  48.2458	   0.0000	
 13.7108	  42.4845	   0.0000	
 39.1264	  48.1965	   0.0000	
 15.0390	  43.4714	   0.0000	
 38.9521	  48.8114	   0.0000	
 15.5029	  45.3579	   0.0000	
 38.3821	  49.5179	   0.0000	
 15.6191	  47.3250	   0.0000	
 38.2032	  48.9205	   0.0000	
 16.1258	  47.2685	   0.0000	
 37.0207	  49.2838	   0.0000	
 16.4364	  48.1593	   0.0000	
 34.8242	  49.0161	   0.0000	
 23.1853	  46.4824	   0.0000	
 37.1341	  52.1149	   0.0000	
 17.8192	  52.5427	   0.0000	
 33.7042	  51.4219	   0.0000	
 21.8906	  52.5003	   0.0000	
 30.6521	  51.6542	   0.0000	
 23.2833	  54.5853	   0.0000	
 31.2342	  56.3896	   0.0000	
 21.0058	  57.7561	   0.0000	
  0.0000	   0.0000	   0.0000	
  0.0000	   0.0000	   0.0000	
 -0.0000	   0.0000	   0.0000	
  0.0000	  -0.0000	   0.0000	
 -0.0000	   0.0000	   0.0000	
  0.0000	   0.0000	   0.0000	
 -0.0000	   0.0000	   0.0000	
 -0.0000	  -0.0000	   0.0000	
 -0.0000	  -0.0000	   0.0000	
 -0.0000	   0.0000	   0.0000	
 -0.0000	  -0.0000	   0.0000	
 -0.0000	  -0.0000	   0.0000	
 -0.0000	   0.0000	   0.0000	
 -0.0000	  -0.0000	   0.0000	