# vtk DataFile Version 3.0 
Results 
ASCII 
DATASET UNSTRUCTURED_GRID 
POINTS 	    1451 float 
  0.0000	   0.6000	  0.0000	 
  0.0000	   1.2000	  0.0000	 
  0.0000	   1.8000	  0.0000	 
  0.0000	   2.4000	  0.0000	 
  0.0000	   3.0000	  0.0000	 
  0.0000	   3.6000	  0.0000	 
  0.0000	   4.2000	  0.0000	 
  0.0000	   4.8000	  0.0000	 
  0.0000	   5.4000	  0.0000	 
  0.0000	   6.0000	  0.0000	 
  0.0000	   6.6000	  0.0000	 
  0.0000	   7.2000	  0.0000	 
  0.0000	   7.8000	  0.0000	 
  0.0000	   8.4000	  0.0000	 
  0.0000	   9.0000	  0.0000	 
  0.0000	   9.6000	  0.0000	 
  0.0000	  10.2000	  0.0000	 
  0.0000	  10.8000	  0.0000	 
  0.0000	  11.4000	  0.0000	 
  0.2250	   0.8475	  0.0000	 
  0.2250	   1.4200	  0.0000	 
  0.2250	   1.9925	  0.0000	 
  0.2250	   2.5650	  0.0000	 
  0.2250	   3.1375	  0.0000	 
  0.2250	   3.7100	  0.0000	 
  0.2250	   4.2825	  0.0000	 
  0.2250	   4.8550	  0.0000	 
  0.2250	   5.4275	  0.0000	 
  0.2250	   6.0000	  0.0000	 
  0.2250	   6.5725	  0.0000	 
  0.2250	   7.1450	  0.0000	 
  0.2250	   7.7175	  0.0000	 
  0.2250	   8.2900	  0.0000	 
  0.2250	   8.8625	  0.0000	 
  0.2250	   9.4350	  0.0000	 
  0.2250	  10.0075	  0.0000	 
  0.2250	  10.5800	  0.0000	 
  0.2250	  11.1525	  0.0000	 
  0.4500	   1.0950	  0.0000	 
  0.4500	   1.6400	  0.0000	 
  0.4500	   2.1850	  0.0000	 
  0.4500	   2.7300	  0.0000	 
  0.4500	   3.2750	  0.0000	 
  0.4500	   3.8200	  0.0000	 
  0.4500	   4.3650	  0.0000	 
  0.4500	   4.9100	  0.0000	 
  0.4500	   5.4550	  0.0000	 
  0.4500	   6.0000	  0.0000	 
  0.4500	   6.5450	  0.0000	 
  0.4500	   7.0900	  0.0000	 
  0.4500	   7.6350	  0.0000	 
  0.4500	   8.1800	  0.0000	 
  0.4500	   8.7250	  0.0000	 
  0.4500	   9.2700	  0.0000	 
  0.4500	   9.8150	  0.0000	 
  0.4500	  10.3600	  0.0000	 
  0.4500	  10.9050	  0.0000	 
  0.6750	   1.3425	  0.0000	 
  0.6750	   1.8600	  0.0000	 
  0.6750	   2.3775	  0.0000	 
  0.6750	   2.8950	  0.0000	 
  0.6750	   3.4125	  0.0000	 
  0.6750	   3.9300	  0.0000	 
  0.6750	   4.4475	  0.0000	 
  0.6750	   4.9650	  0.0000	 
  0.6750	   5.4825	  0.0000	 
  0.6750	   6.0000	  0.0000	 
  0.6750	   6.5175	  0.0000	 
  0.6750	   7.0350	  0.0000	 
  0.6750	   7.5525	  0.0000	 
  0.6750	   8.0700	  0.0000	 
  0.6750	   8.5875	  0.0000	 
  0.6750	   9.1050	  0.0000	 
  0.6750	   9.6225	  0.0000	 
  0.6750	  10.1400	  0.0000	 
  0.6750	  10.6575	  0.0000	 
  0.9000	   1.5900	  0.0000	 
  0.9000	   2.0800	  0.0000	 
  0.9000	   2.5700	  0.0000	 
  0.9000	   3.0600	  0.0000	 
  0.9000	   3.5500	  0.0000	 
  0.9000	   4.0400	  0.0000	 
  0.9000	   4.5300	  0.0000	 
  0.9000	   5.0200	  0.0000	 
  0.9000	   5.5100	  0.0000	 
  0.9000	   6.0000	  0.0000	 
  0.9000	   6.4900	  0.0000	 
  0.9000	   6.9800	  0.0000	 
  0.9000	   7.4700	  0.0000	 
  0.9000	   7.9600	  0.0000	 
  0.9000	   8.4500	  0.0000	 
  0.9000	   8.9400	  0.0000	 
  0.9000	   9.4300	  0.0000	 
  0.9000	   9.9200	  0.0000	 
  0.9000	  10.4100	  0.0000	 
  1.1250	   1.8375	  0.0000	 
  1.1250	   2.3000	  0.0000	 
  1.1250	   2.7625	  0.0000	 
  1.1250	   3.2250	  0.0000	 
  1.1250	   3.6875	  0.0000	 
  1.1250	   4.1500	  0.0000	 
  1.1250	   4.6125	  0.0000	 
  1.1250	   5.0750	  0.0000	 
  1.1250	   5.5375	  0.0000	 
  1.1250	   6.0000	  0.0000	 
  1.1250	   6.4625	  0.0000	 
  1.1250	   6.9250	  0.0000	 
  1.1250	   7.3875	  0.0000	 
  1.1250	   7.8500	  0.0000	 
  1.1250	   8.3125	  0.0000	 
  1.1250	   8.7750	  0.0000	 
  1.1250	   9.2375	  0.0000	 
  1.1250	   9.7000	  0.0000	 
  1.1250	  10.1625	  0.0000	 
  1.3500	   2.0850	  0.0000	 
  1.3500	   2.5200	  0.0000	 
  1.3500	   2.9550	  0.0000	 
  1.3500	   3.3900	  0.0000	 
  1.3500	   3.8250	  0.0000	 
  1.3500	   4.2600	  0.0000	 
  1.3500	   4.6950	  0.0000	 
  1.3500	   5.1300	  0.0000	 
  1.3500	   5.5650	  0.0000	 
  1.3500	   6.0000	  0.0000	 
  1.3500	   6.4350	  0.0000	 
  1.3500	   6.8700	  0.0000	 
  1.3500	   7.3050	  0.0000	 
  1.3500	   7.7400	  0.0000	 
  1.3500	   8.1750	  0.0000	 
  1.3500	   8.6100	  0.0000	 
  1.3500	   9.0450	  0.0000	 
  1.3500	   9.4800	  0.0000	 
  1.3500	   9.9150	  0.0000	 
  1.5750	   2.3325	  0.0000	 
  1.5750	   2.7400	  0.0000	 
  1.5750	   3.1475	  0.0000	 
  1.5750	   3.5550	  0.0000	 
  1.5750	   3.9625	  0.0000	 
  1.5750	   4.3700	  0.0000	 
  1.5750	   4.7775	  0.0000	 
  1.5750	   5.1850	  0.0000	 
  1.5750	   5.5925	  0.0000	 
  1.5750	   6.0000	  0.0000	 
  1.5750	   6.4075	  0.0000	 
  1.5750	   6.8150	  0.0000	 
  1.5750	   7.2225	  0.0000	 
  1.5750	   7.6300	  0.0000	 
  1.5750	   8.0375	  0.0000	 
  1.5750	   8.4450	  0.0000	 
  1.5750	   8.8525	  0.0000	 
  1.5750	   9.2600	  0.0000	 
  1.5750	   9.6675	  0.0000	 
  1.8000	   2.5800	  0.0000	 
  1.8000	   2.9600	  0.0000	 
  1.8000	   3.3400	  0.0000	 
  1.8000	   3.7200	  0.0000	 
  1.8000	   4.1000	  0.0000	 
  1.8000	   4.4800	  0.0000	 
  1.8000	   4.8600	  0.0000	 
  1.8000	   5.2400	  0.0000	 
  1.8000	   5.6200	  0.0000	 
  1.8000	   6.0000	  0.0000	 
  1.8000	   6.3800	  0.0000	 
  1.8000	   6.7600	  0.0000	 
  1.8000	   7.1400	  0.0000	 
  1.8000	   7.5200	  0.0000	 
  1.8000	   7.9000	  0.0000	 
  1.8000	   8.2800	  0.0000	 
  1.8000	   8.6600	  0.0000	 
  1.8000	   9.0400	  0.0000	 
  1.8000	   9.4200	  0.0000	 
  2.0250	   2.8275	  0.0000	 
  2.0250	   3.1800	  0.0000	 
  2.0250	   3.5325	  0.0000	 
  2.0250	   3.8850	  0.0000	 
  2.0250	   4.2375	  0.0000	 
  2.0250	   4.5900	  0.0000	 
  2.0250	   4.9425	  0.0000	 
  2.0250	   5.2950	  0.0000	 
  2.0250	   5.6475	  0.0000	 
  2.0250	   6.0000	  0.0000	 
  2.0250	   6.3525	  0.0000	 
  2.0250	   6.7050	  0.0000	 
  2.0250	   7.0575	  0.0000	 
  2.0250	   7.4100	  0.0000	 
  2.0250	   7.7625	  0.0000	 
  2.0250	   8.1150	  0.0000	 
  2.0250	   8.4675	  0.0000	 
  2.0250	   8.8200	  0.0000	 
  2.0250	   9.1725	  0.0000	 
  2.2500	   3.0750	  0.0000	 
  2.2500	   3.4000	  0.0000	 
  2.2500	   3.7250	  0.0000	 
  2.2500	   4.0500	  0.0000	 
  2.2500	   4.3750	  0.0000	 
  2.2500	   4.7000	  0.0000	 
  2.2500	   5.0250	  0.0000	 
  2.2500	   5.3500	  0.0000	 
  2.2500	   5.6750	  0.0000	 
  2.2500	   6.0000	  0.0000	 
  2.2500	   6.3250	  0.0000	 
  2.2500	   6.6500	  0.0000	 
  2.2500	   6.9750	  0.0000	 
  2.2500	   7.3000	  0.0000	 
  2.2500	   7.6250	  0.0000	 
  2.2500	   7.9500	  0.0000	 
  2.2500	   8.2750	  0.0000	 
  2.2500	   8.6000	  0.0000	 
  2.2500	   8.9250	  0.0000	 
  2.4750	   3.3225	  0.0000	 
  2.4750	   3.6200	  0.0000	 
  2.4750	   3.9175	  0.0000	 
  2.4750	   4.2150	  0.0000	 
  2.4750	   4.5125	  0.0000	 
  2.4750	   4.8100	  0.0000	 
  2.4750	   5.1075	  0.0000	 
  2.4750	   5.4050	  0.0000	 
  2.4750	   5.7025	  0.0000	 
  2.4750	   6.0000	  0.0000	 
  2.4750	   6.2975	  0.0000	 
  2.4750	   6.5950	  0.0000	 
  2.4750	   6.8925	  0.0000	 
  2.4750	   7.1900	  0.0000	 
  2.4750	   7.4875	  0.0000	 
  2.4750	   7.7850	  0.0000	 
  2.4750	   8.0825	  0.0000	 
  2.4750	   8.3800	  0.0000	 
  2.4750	   8.6775	  0.0000	 
  2.7000	   3.5700	  0.0000	 
  2.7000	   3.8400	  0.0000	 
  2.7000	   4.1100	  0.0000	 
  2.7000	   4.3800	  0.0000	 
  2.7000	   4.6500	  0.0000	 
  2.7000	   4.9200	  0.0000	 
  2.7000	   5.1900	  0.0000	 
  2.7000	   5.4600	  0.0000	 
  2.7000	   5.7300	  0.0000	 
  2.7000	   6.0000	  0.0000	 
  2.7000	   6.2700	  0.0000	 
  2.7000	   6.5400	  0.0000	 
  2.7000	   6.8100	  0.0000	 
  2.7000	   7.0800	  0.0000	 
  2.7000	   7.3500	  0.0000	 
  2.7000	   7.6200	  0.0000	 
  2.7000	   7.8900	  0.0000	 
  2.7000	   8.1600	  0.0000	 
  2.7000	   8.4300	  0.0000	 
  2.9250	   3.8175	  0.0000	 
  2.9250	   4.0600	  0.0000	 
  2.9250	   4.3025	  0.0000	 
  2.9250	   4.5450	  0.0000	 
  2.9250	   4.7875	  0.0000	 
  2.9250	   5.0300	  0.0000	 
  2.9250	   5.2725	  0.0000	 
  2.9250	   5.5150	  0.0000	 
  2.9250	   5.7575	  0.0000	 
  2.9250	   6.0000	  0.0000	 
  2.9250	   6.2425	  0.0000	 
  2.9250	   6.4850	  0.0000	 
  2.9250	   6.7275	  0.0000	 
  2.9250	   6.9700	  0.0000	 
  2.9250	   7.2125	  0.0000	 
  2.9250	   7.4550	  0.0000	 
  2.9250	   7.6975	  0.0000	 
  2.9250	   7.9400	  0.0000	 
  2.9250	   8.1825	  0.0000	 
  3.1500	   4.0650	  0.0000	 
  3.1500	   4.2800	  0.0000	 
  3.1500	   4.4950	  0.0000	 
  3.1500	   4.7100	  0.0000	 
  3.1500	   4.9250	  0.0000	 
  3.1500	   5.1400	  0.0000	 
  3.1500	   5.3550	  0.0000	 
  3.1500	   5.5700	  0.0000	 
  3.1500	   5.7850	  0.0000	 
  3.1500	   6.0000	  0.0000	 
  3.1500	   6.2150	  0.0000	 
  3.1500	   6.4300	  0.0000	 
  3.1500	   6.6450	  0.0000	 
  3.1500	   6.8600	  0.0000	 
  3.1500	   7.0750	  0.0000	 
  3.1500	   7.2900	  0.0000	 
  3.1500	   7.5050	  0.0000	 
  3.1500	   7.7200	  0.0000	 
  3.1500	   7.9350	  0.0000	 
  3.3750	   4.3125	  0.0000	 
  3.3750	   4.5000	  0.0000	 
  3.3750	   4.6875	  0.0000	 
  3.3750	   4.8750	  0.0000	 
  3.3750	   5.0625	  0.0000	 
  3.3750	   5.2500	  0.0000	 
  3.3750	   5.4375	  0.0000	 
  3.3750	   5.6250	  0.0000	 
  3.3750	   5.8125	  0.0000	 
  3.3750	   6.0000	  0.0000	 
  3.3750	   6.1875	  0.0000	 
  3.3750	   6.3750	  0.0000	 
  3.3750	   6.5625	  0.0000	 
  3.3750	   6.7500	  0.0000	 
  3.3750	   6.9375	  0.0000	 
  3.3750	   7.1250	  0.0000	 
  3.3750	   7.3125	  0.0000	 
  3.3750	   7.5000	  0.0000	 
  3.3750	   7.6875	  0.0000	 
  3.6000	   4.5600	  0.0000	 
  3.6000	   4.7200	  0.0000	 
  3.6000	   4.8800	  0.0000	 
  3.6000	   5.0400	  0.0000	 
  3.6000	   5.2000	  0.0000	 
  3.6000	   5.3600	  0.0000	 
  3.6000	   5.5200	  0.0000	 
  3.6000	   5.6800	  0.0000	 
  3.6000	   5.8400	  0.0000	 
  3.6000	   6.0000	  0.0000	 
  3.6000	   6.1600	  0.0000	 
  3.6000	   6.3200	  0.0000	 
  3.6000	   6.4800	  0.0000	 
  3.6000	   6.6400	  0.0000	 
  3.6000	   6.8000	  0.0000	 
  3.6000	   6.9600	  0.0000	 
  3.6000	   7.1200	  0.0000	 
  3.6000	   7.2800	  0.0000	 
  3.6000	   7.4400	  0.0000	 
  3.8250	   4.8075	  0.0000	 
  3.8250	   4.9400	  0.0000	 
  3.8250	   5.0725	  0.0000	 
  3.8250	   5.2050	  0.0000	 
  3.8250	   5.3375	  0.0000	 
  3.8250	   5.4700	  0.0000	 
  3.8250	   5.6025	  0.0000	 
[...]
POINT_DATA 	    1451 
VECTORS U float 
 50.0000	   0.0000	   0.0000	
 50.0000	   0.0000	   0.0000	
 50.0000	   0.0000	   0.0000	
 50.0000	   0.0000	   0.0000	
 50.0000	  -0.0000	   0.0000	
 50.0000	  -0.0000	   0.0000	
 50.0000	   0.0000	   0.0000	
 50.0000	  -0.0000	   0.0000	
 50.0000	  -0.0000	   0.0000	
 50.0000	   0.0000	   0.0000	
 50.0000	  -0.0000	   0.0000	
 50.0000	  -0.0000	   0.0000	
 50.0000	   0.0000	   0.0000	
 50.0000	   0.0000	   0.0000	
 50.0000	  -0.0000	   0.0000	
 50.0000	  -0.0000	   0.0000	
 50.0000	   0.0000	   0.0000	
 50.0000	   0.0000	   0.0000	
 50.0000	  -0.0000	   0.0000	
 57.9277	  89.0565	   0.0000	
 51.5842	 -21.8402	   0.0000	
 56.9593	  50.0723	   0.0000	
 37.9440	  13.6977	   0.0000	
 59.6741	  31.0065	   0.0000	
 42.8817	  41.1940	   0.0000	
 49.0674	  63.5028	   0.0000	
 48.8174	  72.1748	   0.0000	
 49.6292	  75.5350	   0.0000	
 48.3239	  81.1966	   0.0000	
 51.0888	  83.3503	   0.0000	
 49.8838	  79.1742	   0.0000	
 52.6549	  74.7830	   0.0000	
 52.6800	  52.9699	   0.0000	
 49.7247	  41.3086	   0.0000	
 49.9708	  39.1401	   0.0000	
 50.3270	  37.9473	   0.0000	
 48.2405	  32.6037	   0.0000	
 51.4136	  32.0803	   0.0000	
123.1633	  19.8018	   0.0000	
-18.8395	  63.2489	   0.0000	
 90.2402	  47.4479	   0.0000	
 29.2785	  53.1402	   0.0000	
 50.3395	  64.3144	   0.0000	
 34.1072	  62.4470	   0.0000	
 45.7026	  64.8490	   0.0000	
 46.6745	  67.5469	   0.0000	
 48.5572	  68.7863	   0.0000	
 48.0592	  69.3704	   0.0000	
 48.8775	  70.3472	   0.0000	
 51.9037	  76.5566	   0.0000	
 52.2060	  77.6076	   0.0000	
 64.4582	  81.6028	   0.0000	
 55.3261	  84.1795	   0.0000	
 51.2871	  74.2816	   0.0000	
 52.0545	  69.9502	   0.0000	
 53.5598	  62.1884	   0.0000	
 52.9403	  64.9837	   0.0000	
 45.5337	  91.5265	   0.0000	
 46.5472	  32.2980	   0.0000	
 59.6836	  82.3797	   0.0000	
 35.4447	  65.3029	   0.0000	
 49.0054	  71.8967	   0.0000	
 37.6653	  63.9858	   0.0000	
 46.8052	  62.6265	   0.0000	
 46.1927	  65.3362	   0.0000	
 47.4378	  68.4846	   0.0000	
 47.2361	  71.5124	   0.0000	
 48.8278	  73.6753	   0.0000	
 49.5364	  73.1840	   0.0000	
 49.8826	  77.3605	   0.0000	
 58.8682	  80.1898	   0.0000	
 51.8134	  90.7725	   0.0000	
 55.9181	  98.7791	   0.0000	
 52.8480	  95.2962	   0.0000	
 58.6121	  82.2379	   0.0000	
 41.2950	  86.4949	   0.0000	
 24.2859	  64.9992	   0.0000	
 37.4719	  56.4440	   0.0000	
 52.8877	  80.3392	   0.0000	
 40.1586	  65.2675	   0.0000	
 48.1086	  67.8220	   0.0000	
 37.7007	  63.4816	   0.0000	
 46.6968	  65.5272	   0.0000	
 44.3863	  68.1659	   0.0000	
 46.4641	  69.9353	   0.0000	
 46.5388	  71.9735	   0.0000	
 47.1071	  73.4632	   0.0000	
 49.9456	  76.6291	   0.0000	
 47.1348	  77.7407	   0.0000	
 57.9305	  79.2352	   0.0000	
 49.2841	  87.4209	   0.0000	
 51.9108	  92.4240	   0.0000	
 52.4327	 101.6889	   0.0000	
 63.0398	  99.5089	   0.0000	
 48.6079	  89.7521	   0.0000	
 51.7019	  68.5324	   0.0000	
 39.2583	  53.6133	   0.0000	
 46.5710	  72.9618	   0.0000	
 45.7413	  60.9177	   0.0000	
 46.8905	  64.1727	   0.0000	
 39.3951	  63.3450	   0.0000	
 45.2765	  65.0770	   0.0000	
 43.8630	  67.6987	   0.0000	
 45.2718	  69.8011	   0.0000	
 45.6611	  72.2396	   0.0000	
 46.3883	  74.1183	   0.0000	
 48.4668	  75.1052	   0.0000	
 46.9555	  78.1984	   0.0000	
 54.3758	  76.9001	   0.0000	
 48.1010	  84.4982	   0.0000	
 47.8192	  85.7757	   0.0000	
 49.3424	  90.3095	   0.0000	
 56.4307	  94.5289	   0.0000	
 68.1650	 102.0148	   0.0000	
 44.4484	  64.0253	   0.0000	
 38.2361	  46.4220	   0.0000	
 50.3473	  57.0444	   0.0000	
 41.5865	  60.7651	   0.0000	
 44.9098	  65.6687	   0.0000	
 39.2112	  63.7872	   0.0000	
 44.4185	  66.3180	   0.0000	
 42.5805	  68.4727	   0.0000	
 44.2071	  70.5359	   0.0000	
 44.9370	  72.5605	   0.0000	
 44.8367	  74.1332	   0.0000	
 48.5949	  76.4929	   0.0000	
 44.6326	  77.5359	   0.0000	
 54.0702	  78.7584	   0.0000	
 46.7978	  83.2291	   0.0000	
 49.0957	  81.6932	   0.0000	
 47.8284	  81.6242	   0.0000	
 50.4420	  79.0016	   0.0000	
 55.6989	  88.8301	   0.0000	
 47.7072	  62.0924	   0.0000	
 39.0321	  62.3933	   0.0000	
 46.6519	  63.7412	   0.0000	
 40.9688	  64.2737	   0.0000	
 44.0978	  64.8484	   0.0000	
 39.4334	  64.8213	   0.0000	
 43.0903	  66.9226	   0.0000	
 41.7236	  68.9948	   0.0000	
 43.0310	  70.9440	   0.0000	
 43.9077	  73.2999	   0.0000	
 43.8736	  75.0043	   0.0000	
 47.0990	  76.4006	   0.0000	
 44.5850	  79.3804	   0.0000	
 50.8858	  77.6679	   0.0000	
 46.8328	  85.5099	   0.0000	
 49.0109	  82.9716	   0.0000	
 47.0415	  87.1747	   0.0000	
 50.3410	  84.9231	   0.0000	
 47.8197	  88.6990	   0.0000	
 41.8502	  63.4559	   0.0000	
 42.0583	  57.1461	   0.0000	
 44.9990	  61.8182	   0.0000	
 40.3009	  61.3442	   0.0000	
 42.6874	  64.7124	   0.0000	
 38.9467	  64.7164	   0.0000	
 41.7500	  67.4217	   0.0000	
 40.6711	  69.3875	   0.0000	
 41.7749	  71.5822	   0.0000	
 42.9405	  73.7273	   0.0000	
 42.5684	  75.2672	   0.0000	
 46.6436	  76.8089	   0.0000	
 42.7018	  78.4486	   0.0000	
 51.1035	  78.3563	   0.0000	
 43.2007	  81.8676	   0.0000	
 50.6670	  82.0330	   0.0000	
 44.7959	  84.1863	   0.0000	
 49.6789	  83.1874	   0.0000	
 45.9691	  92.8902	   0.0000	
 43.6440	  59.2381	   0.0000	
 41.8210	  60.7693	   0.0000	
 42.4631	  62.0707	   0.0000	
 39.7166	  63.0766	   0.0000	
 41.0442	  65.0063	   0.0000	
 38.3401	  65.7546	   0.0000	
 40.3224	  68.0671	   0.0000	
 39.4935	  70.0643	   0.0000	
 40.4171	  72.1580	   0.0000	
 41.8266	  74.3348	   0.0000	
 41.4995	  76.0469	   0.0000	
 45.4709	  77.5744	   0.0000	
 42.2270	  79.7147	   0.0000	
 48.9581	  78.6842	   0.0000	
 43.9936	  84.0540	   0.0000	
 47.7382	  80.0255	   0.0000	
 46.1442	  87.2101	   0.0000	
 48.1036	  80.8192	   0.0000	
 41.1307	  92.4362	   0.0000	
 41.8705	  57.6523	   0.0000	
 40.6977	  60.7768	   0.0000	
 40.7077	  61.0555	   0.0000	
 38.8550	  62.7288	   0.0000	
 39.2399	  64.7907	   0.0000	
 37.4438	  66.0056	   0.0000	
 38.7439	  68.5827	   0.0000	
 38.1297	  70.7668	   0.0000	
 39.1009	  72.9079	   0.0000	
 40.4300	  75.2189	   0.0000	
 40.3456	  76.6680	   0.0000	
 44.2388	  77.6772	   0.0000	
 41.2569	  79.7484	   0.0000	
 48.5276	  78.1214	   0.0000	
 41.2519	  82.2382	   0.0000	
 50.6260	  79.2978	   0.0000	
 40.1630	  83.6538	   0.0000	
 52.3202	  81.7127	   0.0000	
 38.9150	  88.8119	   0.0000	
 39.3853	  59.0271	   0.0000	
 40.3551	  61.5356	   0.0000	
 38.5074	  61.5397	   0.0000	
 37.6645	  63.7142	   0.0000	
 37.5405	  65.4393	   0.0000	
 36.1873	  66.8208	   0.0000	
 37.0593	  69.2470	   0.0000	
 36.8282	  71.1499	   0.0000	
 37.4712	  73.5662	   0.0000	
 39.0878	  75.5507	   0.0000	
 39.2830	  77.7228	   0.0000	
 43.0824	  78.8723	   0.0000	
 40.3836	  80.9444	   0.0000	
 47.6572	  79.8660	   0.0000	
 40.8253	  83.7045	   0.0000	
 49.6778	  79.4259	   0.0000	
 41.5277	  85.6031	   0.0000	
 46.6941	  79.6899	   0.0000	
 43.7406	  92.1129	   0.0000	
 40.3189	  59.1621	   0.0000	
 37.6764	  61.1526	   0.0000	
 36.5186	  61.2271	   0.0000	
 35.9533	  63.3399	   0.0000	
 35.4570	  65.5184	   0.0000	
 34.4287	  67.5205	   0.0000	
 35.1338	  70.1885	   0.0000	
 34.7076	  72.8277	   0.0000	
 35.9381	  74.8557	   0.0000	
 37.1938	  77.3194	   0.0000	
 37.7983	  78.7474	   0.0000	
 41.5579	  80.0219	   0.0000	
 40.1406	  81.3360	   0.0000	
 46.1855	  78.9029	   0.0000	
 40.9909	  82.7241	   0.0000	
 49.7257	  76.2155	   0.0000	
 38.5392	  85.5476	   0.0000	
 50.8149	  79.9828	   0.0000	
 33.5333	  91.1743	   0.0000	
 38.3277	  59.5921	   0.0000	
 35.8931	  61.5815	   0.0000	
 35.0925	  62.2479	   0.0000	
 33.9166	  63.9523	   0.0000	
 33.2803	  66.1960	   0.0000	
 32.8093	  67.8748	   0.0000	
 32.9022	  70.7903	   0.0000	
 33.5425	  72.4357	   0.0000	
 33.7690	  75.5249	   0.0000	
 35.5752	  77.4646	   0.0000	
 36.8647	  79.3552	   0.0000	
 39.2220	  80.2098	   0.0000	
 39.4434	  83.5708	   0.0000	
 45.5097	  82.1639	   0.0000	
 40.2237	  85.5462	   0.0000	
 50.6194	  80.4769	   0.0000	
 36.7324	  88.4507	   0.0000	
 47.3850	  82.6417	   0.0000	
 42.9663	  82.9890	   0.0000	
 35.5117	  59.0860	   0.0000	
 32.9297	  61.8412	   0.0000	
 32.2581	  63.4421	   0.0000	
 31.0761	  64.9407	   0.0000	
 30.5961	  67.2293	   0.0000	
 29.5565	  69.8157	   0.0000	
 30.6691	  72.8014	   0.0000	
 30.0749	  75.7239	   0.0000	
 31.9505	  77.7623	   0.0000	
 32.2555	  80.5476	   0.0000	
 35.3230	  83.9185	   0.0000	
 37.9368	  84.8303	   0.0000	
 37.7459	  84.8450	   0.0000	
 44.3303	  82.4261	   0.0000	
 41.2933	  84.2508	   0.0000	
 48.6127	  78.3767	   0.0000	
 40.9243	  84.5759	   0.0000	
 44.6111	  78.0501	   0.0000	
 49.5704	  74.6237	   0.0000	
 32.4883	  57.3449	   0.0000	
 28.7092	  62.3908	   0.0000	
 29.2256	  63.8301	   0.0000	
 29.8300	  65.5149	   0.0000	
 26.6897	  67.4870	   0.0000	
 27.8051	  69.2312	   0.0000	
 27.4426	  72.3797	   0.0000	
 29.1116	  74.2006	   0.0000	
 28.5019	  77.3488	   0.0000	
 31.5567	  79.2709	   0.0000	
 30.7643	  79.9585	   0.0000	
 35.0829	  83.0884	   0.0000	
 38.0771	  86.3254	   0.0000	
 41.6391	  85.5868	   0.0000	
 41.7957	  90.3101	   0.0000	
 47.6093	  86.2248	   0.0000	
 43.1354	  89.8107	   0.0000	
 49.9685	  83.5057	   0.0000	
 49.0008	  75.3162	   0.0000	
 26.5621	  58.1152	   0.0000	
 25.3285	  63.8319	   0.0000	
 24.2980	  66.3333	   0.0000	
 24.9820	  69.7726	   0.0000	
 24.8416	  72.5482	   0.0000	
 23.4520	  73.7627	   0.0000	
 24.6844	  76.3576	   0.0000	
 23.2930	  80.4672	   0.0000	
 26.6180	  82.9974	   0.0000	
 23.4553	  88.0920	   0.0000	
 29.2895	  93.0904	   0.0000	
 32.3159	  94.6543	   0.0000	
 34.3654	  94.7260	   0.0000	
 41.3964	  91.3873	   0.0000	
 35.9623	  95.1391	   0.0000	
 48.3571	  87.9179	   0.0000	
 47.2849	  86.3341	   0.0000	
 45.6039	  86.2369	   0.0000	
 56.8659	  75.6192	   0.0000	
 19.1090	  58.6862	   0.0000	
 19.4522	  65.9743	   0.0000	
 19.5391	  67.9424	   0.0000	
 20.9250	  70.7302	   0.0000	
 24.4018	  72.6212	   0.0000	
 22.0749	  70.9412	   0.0000	
 18.0818	  73.8108	   0.0000	
 22.4037	  74.7520	   0.0000	
 19.5624	  77.1319	   0.0000	
 24.7979	  76.4491	   0.0000	
 20.9886	  77.1863	   0.0000	
 27.9425	  81.6089	   0.0000	
 27.4781	  86.6966	   0.0000	
 42.1886	  88.8702	   0.0000	
 24.5968	 103.1836	   0.0000	
 42.5998	 109.2659	   0.0000	
 58.8688	  99.8643	   0.0000	
 52.5397	  96.6498	   0.0000	
 53.2566	  86.9870	   0.0000	
 13.3178	  57.1569	   0.0000	
  7.9946	  68.8081	   0.0000	
 15.7711	  78.6577	   0.0000	
 27.9200	  81.5189	   0.0000	
 23.4829	  78.9766	   0.0000	
 14.3910	  76.9979	   0.0000	
 19.6376	  78.1811	   0.0000	
 14.7360	  82.7112	   0.0000	
 18.5983	  87.4495	   0.0000	
  7.4213	  95.4883	   0.0000	
 20.7803	 103.8110	   0.0000	
 12.6086	 106.5195	   0.0000	
 15.4252	 116.4618	   0.0000	
 20.3696	 125.7227	   0.0000	
 35.0351	 124.3790	   0.0000	
  4.5748	 132.3986	   0.0000	
 29.4594	 126.8292	   0.0000	
 81.6186	 102.7599	   0.0000	
 73.1619	  82.0166	   0.0000	
  1.4128	  52.6987	   0.0000	
 18.2683	  64.9907	   0.0000	
 21.7917	  69.5772	   0.0000	
 21.6026	  76.4932	   0.0000	
 12.2921	  79.0968	   0.0000	
  1.9653	  86.1762	   0.0000	
  3.5158	  88.9532	   0.0000	
  2.6167	  92.5274	   0.0000	
  2.4598	  95.7112	   0.0000	
  1.8570	  97.0798	   0.0000	
  0.2243	  97.9753	   0.0000	
  5.9105	 102.3338	   0.0000	
 -0.5753	 105.0301	   0.0000	
  9.1682	 106.9527	   0.0000	
-19.8594	 106.0426	   0.0000	
 37.7092	 116.1839	   0.0000	
 -0.8846	 125.9348	   0.0000	
 20.2058	 123.7394	   0.0000	
 62.3309	 107.6251	   0.0000	
 -0.0000	  -0.0000	   0.0000	
  0.0000	   0.0000	   0.0000	
 -0.0000	   0.0000	   0.0000	
 -0.0000	   0.0000	   0.0000	
  0.0000	  -0.0000	   0.0000	
 -0.0000	   0.0000	   0.0000	
  0.0000	   0.0000	   0.0000	
  0.0000	  -0.0000	   0.0000	
 -0.0000	  -0.0000	   0.0000	
  0.0000	   0.0000	   0.0000	
  0.0000	   0.0000	   0.0000	
  0.0000	  -0.0000	   0.0000	
 -0.0000	   0.0000	   0.0000	
 -0.0000	   0.0000	   0.0000	
 -0.0000	  -0.0000	   0.0000	
 -0.0000	  -0.0000	   0.0000	
  0.0000	  -0.0000	   0.0000	
 -0.0000	  -0.0000	   0.0000	
  0.0000	   0.0000	   0.0000	
 50.0000	  50.0000	   0.0000	
 50.0000	  -0.0000	   0.0000	
 80.4171	  47.3491	   0.0000	
 46.7919	  17.7135	   0.0000	
 17.8458	  64.5751	   0.0000	
 60.4396	  38.1645	   0.0000	
 94.3252	  29.7171	   0.0000	
 78.3911	  60.2022	   0.0000	
 67.9629	  59.3518	   0.0000	
 75.3960	  74.0725	   0.0000	
 40.4471	  70.0120	   0.0000	
 55.6298	  76.3144	   0.0000	
 59.8298	  54.0377	   0.0000	
 69.4752	  94.1091	   0.0000	
 44.8409	  66.5131	   0.0000	
 58.0450	  87.0159	   0.0000	
 49.5953	  57.5439	   0.0000	
 55.4442	  83.4404	   0.0000	
 43.8889	  60.7283	   0.0000	
 54.7994	  81.0106	   0.0000	
 43.6970	  59.2645	   0.0000	
 51.5292	  77.4552	   0.0000	
 42.5415	  59.1257	   0.0000	
 49.3567	  75.1131	   0.0000	
 37.8899	  60.4889	   0.0000	
 57.3821	  77.3893	   0.0000	
 38.3851	  58.4337	   0.0000	
 44.2640	  69.2205	   0.0000	
 33.9092	  57.3287	   0.0000	
 50.2182	  69.7748	   0.0000	
 30.8507	  55.8888	   0.0000	
 53.7148	  69.8993	   0.0000	
 24.2093	  54.7031	   0.0000	
 58.4217	  68.1304	   0.0000	
 17.0354	  51.2918	   0.0000	
 70.0974	  68.2160	   0.0000	
  1.4777	  44.6309	   0.0000	
 77.7952	  60.9076	   0.0000	
-21.2588	  39.9426	   0.0000	
135.5266	  77.8810	   0.0000	
 -0.0000	   0.0000	   0.0000	
 -0.0000	  -0.0000	   0.0000	
 51.3420	  50.0000	   0.0000	
 95.6227	 170.6203	   0.0000	
 36.0934	  53.8235	   0.0000	
 55.5330	 151.0930	   0.0000	
 40.5684	  55.3779	   0.0000	
 28.8818	 131.4106	   0.0000	
 31.8047	  54.4826	   0.0000	
 25.0430	 121.7724	   0.0000	
 47.6692	  51.4028	   0.0000	
 18.2393	 112.4865	   0.0000	
 44.8768	  52.0239	   0.0000	
 20.1283	 108.7180	   0.0000	
 45.0126	  51.4402	   0.0000	
 21.0063	 103.5957	   0.0000	
 42.8347	  52.0073	   0.0000	
 23.4720	 100.0518	   0.0000	
 43.2315	  51.2739	   0.0000	
 22.5112	  94.9458	   0.0000	
 43.3695	  50.0151	   0.0000	
 19.7879	  88.2149	   0.0000	
 39.8857	  50.1385	   0.0000	
 34.0090	  88.7826	   0.0000	
 44.8312	  46.9679	   0.0000	
 24.5615	  80.9242	   0.0000	
 40.0236	  47.3595	   0.0000	
 31.9839	  79.1270	   0.0000	
 40.8788	  44.6465	   0.0000	
 32.0394	  73.8603	   0.0000	
 41.1390	  40.3841	   0.0000	
 33.2483	  68.0890	   0.0000	
 43.2730	  35.5985	   0.0000	
 36.7333	  60.8272	   0.0000	
 45.2686	  29.6392	   0.0000	
 32.4808	  48.4453	   0.0000	
 23.9090	  26.8629	   0.0000	
 69.0031	  44.8741	   0.0000	
 51.6606	   4.9872	   0.0000	
 50.2161	  15.4497	   0.0000	
 45.1111	  -3.3108	   0.0000	
 -4.0883	  -4.8161	   0.0000	
 -0.0000	   0.0000	   0.0000	
 -0.0000	  -0.0000	   0.0000	
 51.4731	  50.0000	   0.0000	
-51.0455	  61.7539	   0.0000	
 49.0539	  47.7740	   0.0000	
-12.9570	  64.1148	   0.0000	
 44.1977	  48.3661	   0.0000	
 -3.8569	  63.9534	   0.0000	
 40.7080	  50.4499	   0.0000	
  3.4141	  63.9051	   0.0000	
 44.8587	  50.0095	   0.0000	
  3.3204	  62.4862	   0.0000	
 42.2980	  50.9801	   0.0000	
  7.3713	  61.9457	   0.0000	
 43.9887	  51.2901	   0.0000	
  7.5532	  60.9896	   0.0000	
 45.5752	  51.6790	   0.0000	
  7.1188	  59.9387	   0.0000	
 43.1148	  52.7837	   0.0000	
 12.6155	  59.1302	   0.0000	
 42.7165	  54.0888	   0.0000	
 16.8266	  59.1950	   0.0000	
 43.4864	  54.5442	   0.0000	
 14.6325	  57.8026	   0.0000	
 46.0989	  55.2810	   0.0000	
 14.6476	  56.0261	   0.0000	
 51.2645	  56.1345	   0.0000	
 14.8442	  54.6216	   0.0000	
 47.9575	  58.7545	   0.0000	
 12.9040	  53.3912	   0.0000	
 52.5545	  60.7977	   0.0000	
 11.5347	  52.8031	   0.0000	
 62.5236	  63.1533	   0.0000	
 -1.7868	  50.4577	   0.0000	
 62.0499	  65.2551	   0.0000	
  7.4810	  48.5223	   0.0000	
 79.3370	  70.4552	   0.0000	
 11.3431	  47.3859	   0.0000	
 85.3108	  76.3212	   0.0000	
 -1.4593	  51.5036	   0.0000	
 53.4301	  80.6702	   0.0000	
  2.6369	  58.9513	   0.0000	
 17.2889	  81.0589	   0.0000	
 16.5014	  63.3285	   0.0000	
 42.2117	  50.0000	   0.0000	
  7.5560	  52.4055	   0.0000	
 39.3872	  50.1739	   0.0000	
 -1.3635	  56.7408	   0.0000	
 36.2208	  51.0261	   0.0000	
  9.0026	  56.7787	   0.0000	
 40.9235	  51.3007	   0.0000	
  5.5408	  57.8401	   0.0000	
 37.7402	  50.6838	   0.0000	
  7.6029	  58.2506	   0.0000	
 40.2249	  51.4935	   0.0000	
  8.4009	  58.8734	   0.0000	
 39.0667	  51.3892	   0.0000	
 11.2646	  58.0570	   0.0000	
 37.6353	  51.5060	   0.0000	
 10.7743	  59.8039	   0.0000	
 40.3232	  52.3249	   0.0000	
 12.8832	  59.5741	   0.0000	
 34.6366	  51.4507	   0.0000	
 16.9989	  58.8474	   0.0000	
 40.9130	  52.2608	   0.0000	
 13.1513	  59.0970	   0.0000	
 38.0701	  52.3482	   0.0000	
 15.5593	  58.6883	   0.0000	
 34.5147	  52.8795	   0.0000	
 16.8570	  59.7238	   0.0000	
 40.4319	  54.4582	   0.0000	
 15.7391	  60.2913	   0.0000	
 35.9307	  54.5775	   0.0000	
 18.5340	  59.5839	   0.0000	
 35.7730	  56.7067	   0.0000	
 16.8731	  62.2035	   0.0000	
 35.6172	  60.3269	   0.0000	
 14.6955	  65.4282	   0.0000	
 30.6933	  64.7522	   0.0000	
 15.6255	  69.2394	   0.0000	
 28.2907	  71.5410	   0.0000	
 28.5872	  66.3128	   0.0000	
 29.7422	  83.7277	   0.0000	
 21.9989	  72.7968	   0.0000	
 22.2251	  83.5232	   0.0000	
 18.5097	  71.5601	   0.0000	
 41.1139	  50.0000	   0.0000	
  0.9487	  46.0508	   0.0000	
 42.3707	  50.4246	   0.0000	
  1.5765	  46.1802	   0.0000	
 41.4060	  50.3195	   0.0000	
  3.5439	  45.7539	   0.0000	
 40.4173	  50.0981	   0.0000	
  7.4249	  45.2456	   0.0000	
 41.0686	  50.0538	   0.0000	
  9.2736	  43.8577	   0.0000	
 41.0541	  49.5397	   0.0000	
  2.2096	  48.3502	   0.0000	
 39.1830	  48.9311	   0.0000	
  9.0825	  44.9863	   0.0000	
 39.5380	  49.6698	   0.0000	
  6.4052	  47.6410	   0.0000	
 38.9708	  49.7302	   0.0000	
  8.4596	  47.4281	   0.0000	
 39.2505	  50.1006	   0.0000	
  9.9042	  47.2569	   0.0000	
 37.7081	  49.9468	   0.0000	
 11.2305	  47.6131	   0.0000	
 39.1601	  51.0082	   0.0000	
  9.5605	  48.5807	   0.0000	
 37.5681	  51.3112	   0.0000	
 12.4431	  48.3162	   0.0000	
 36.9970	  51.2524	   0.0000	
 14.2433	  48.0458	   0.0000	
 37.3969	  51.8136	   0.0000	
 13.2871	  49.1764	   0.0000	
 36.8845	  53.0812	   0.0000	
 14.7845	  49.6131	   0.0000	
 36.9949	  53.2616	   0.0000	
 15.7666	  49.5987	   0.0000	
 34.2756	  52.9808	   0.0000	
 16.5085	  50.6714	   0.0000	
 32.6756	  52.1630	   0.0000	
 22.1787	  49.9064	   0.0000	
 33.0702	  52.2889	   0.0000	
 15.4040	  54.5491	   0.0000	
 26.2566	  50.0547	   0.0000	
 22.5420	  51.3682	   0.0000	
 47.4862	  50.0000	   0.0000	
  0.1282	  28.0302	   0.0000	
 45.2119	  49.3016	   0.0000	
  0.6816	  29.4700	   0.0000	
 43.2574	  48.6886	   0.0000	
  0.9252	  30.7869	   0.0000	
 43.2153	  48.4529	   0.0000	
  2.9932	  32.0751	   0.0000	
 45.4565	  49.1987	   0.0000	
  3.8053	  33.2091	   0.0000	
 44.7071	  48.2139	   0.0000	
  6.1509	  34.4422	   0.0000	
 40.1090	  45.2643	   0.0000	
  7.5766	  35.7885	   0.0000	
 40.8623	  46.2141	   0.0000	
  6.0220	  38.0753	   0.0000	
 39.2541	  45.9005	   0.0000	
 10.1526	  36.9979	   0.0000	
 38.7400	  46.9743	   0.0000	
 11.2630	  39.5292	   0.0000	
 37.7947	  46.7383	   0.0000	
 12.5939	  41.2958	   0.0000	
 37.0271	  46.5119	   0.0000	
 14.0879	  42.1912	   0.0000	
 35.1352	  46.4513	   0.0000	
 16.6382	  43.6420	   0.0000	
 35.3065	  48.0552	   0.0000	
 16.0718	  46.7841	   0.0000	
 33.4024	  48.0220	   0.0000	
 18.9533	  47.4941	   0.0000	
 32.4505	  49.2454	   0.0000	
 20.0893	  49.5099	   0.0000	
 31.7922	  50.0984	   0.0000	
 21.2278	  49.9765	   0.0000	
 29.5330	  50.8956	   0.0000	
 22.7301	  51.6463	   0.0000	
 27.7501	  52.6162	   0.0000	
 24.0709	  53.3430	   0.0000	
 26.3693	  55.0083	   0.0000	
 26.2635	  53.7651	   0.0000	
 24.6772	  55.3231	   0.0000	
 25.2119	  54.5850	   0.0000	
  0.0000	   0.0000	   0.0000	
  0.0000	   0.0000	   0.0000	
 -0.0000	   0.0000	   0.0000	
  0.0000	  -0.0000	   0.0000	
 -0.0000	   0.0000	   0.0000	
  0.0000	   0.0000	   0.0000	
 -0.0000	   0.0000	   0.0000	
 -0.0000	  -0.0000	   0.0000	
 -0.0000	  -0.0000	   0.0000	
 -0.0000	   0.0000	   0.0000	
 -0.0000	  -0.0000	   0.0000	
 -0.0000	  -0.0000	   0.0000	
 -0.0000	   0.0000	   0.0000	
 -0.0000	  -0.0000	   0.0000	