# vtk DataFile Version 3.0 
Results 
ASCII 
DATASET UNSTRUCTURED_GRID 
POINTS 	    1085 float 
  0.0000	   0.6667	  0.0000	 
  0.0000	   1.3333	  0.0000	 
  0.0000	   2.0000	  0.0000	 
  0.0000	   2.6667	  0.0000	 
  0.0000	   3.3333	  0.0000	 
  0.0000	   4.0000	  0.0000	 
  0.0000	   4.6667	  0.0000	 
  0.0000	   5.3333	  0.0000	 
  0.0000	   6.0000	  0.0000	 
  0.0000	   6.6667	  0.0000	 
  0.0000	   7.3333	  0.0000	 
  0.0000	   8.0000	  0.0000	 
  0.0000	   8.6667	  0.0000	 
  0.0000	   9.3333	  0.0000	 
  0.0000	  10.0000	  0.0000	 
  0.0000	  10.6667	  0.0000	 
  0.0000	  11.3333	  0.0000	 
  0.2500	   0.9383	  0.0000	 
  0.2500	   1.5710	  0.0000	 
  0.2500	   2.2037	  0.0000	 
  0.2500	   2.8364	  0.0000	 
  0.2500	   3.4691	  0.0000	 
  0.2500	   4.1019	  0.0000	 
  0.2500	   4.7346	  0.0000	 
  0.2500	   5.3673	  0.0000	 
  0.2500	   6.0000	  0.0000	 
  0.2500	   6.6327	  0.0000	 
  0.2500	   7.2654	  0.0000	 
  0.2500	   7.8981	  0.0000	 
  0.2500	   8.5309	  0.0000	 
  0.2500	   9.1636	  0.0000	 
  0.2500	   9.7963	  0.0000	 
  0.2500	  10.4290	  0.0000	 
  0.2500	  11.0617	  0.0000	 
  0.5000	   1.2099	  0.0000	 
  0.5000	   1.8086	  0.0000	 
  0.5000	   2.4074	  0.0000	 
  0.5000	   3.0062	  0.0000	 
  0.5000	   3.6049	  0.0000	 
  0.5000	   4.2037	  0.0000	 
  0.5000	   4.8025	  0.0000	 
  0.5000	   5.4012	  0.0000	 
  0.5000	   6.0000	  0.0000	 
  0.5000	   6.5988	  0.0000	 
  0.5000	   7.1975	  0.0000	 
  0.5000	   7.7963	  0.0000	 
  0.5000	   8.3951	  0.0000	 
  0.5000	   8.9938	  0.0000	 
  0.5000	   9.5926	  0.0000	 
  0.5000	  10.1914	  0.0000	 
  0.5000	  10.7901	  0.0000	 
  0.7500	   1.4815	  0.0000	 
  0.7500	   2.0463	  0.0000	 
  0.7500	   2.6111	  0.0000	 
  0.7500	   3.1759	  0.0000	 
  0.7500	   3.7407	  0.0000	 
  0.7500	   4.3056	  0.0000	 
  0.7500	   4.8704	  0.0000	 
  0.7500	   5.4352	  0.0000	 
  0.7500	   6.0000	  0.0000	 
  0.7500	   6.5648	  0.0000	 
  0.7500	   7.1296	  0.0000	 
  0.7500	   7.6944	  0.0000	 
  0.7500	   8.2593	  0.0000	 
  0.7500	   8.8241	  0.0000	 
  0.7500	   9.3889	  0.0000	 
  0.7500	   9.9537	  0.0000	 
  0.7500	  10.5185	  0.0000	 
  1.0000	   1.7531	  0.0000	 
  1.0000	   2.2840	  0.0000	 
  1.0000	   2.8148	  0.0000	 
  1.0000	   3.3457	  0.0000	 
  1.0000	   3.8765	  0.0000	 
  1.0000	   4.4074	  0.0000	 
  1.0000	   4.9383	  0.0000	 
  1.0000	   5.4691	  0.0000	 
  1.0000	   6.0000	  0.0000	 
  1.0000	   6.5309	  0.0000	 
  1.0000	   7.0617	  0.0000	 
  1.0000	   7.5926	  0.0000	 
  1.0000	   8.1235	  0.0000	 
  1.0000	   8.6543	  0.0000	 
  1.0000	   9.1852	  0.0000	 
  1.0000	   9.7160	  0.0000	 
  1.0000	  10.2469	  0.0000	 
  1.2500	   2.0247	  0.0000	 
  1.2500	   2.5216	  0.0000	 
  1.2500	   3.0185	  0.0000	 
  1.2500	   3.5154	  0.0000	 
  1.2500	   4.0123	  0.0000	 
  1.2500	   4.5093	  0.0000	 
  1.2500	   5.0062	  0.0000	 
  1.2500	   5.5031	  0.0000	 
  1.2500	   6.0000	  0.0000	 
  1.2500	   6.4969	  0.0000	 
  1.2500	   6.9938	  0.0000	 
  1.2500	   7.4907	  0.0000	 
  1.2500	   7.9877	  0.0000	 
  1.2500	   8.4846	  0.0000	 
  1.2500	   8.9815	  0.0000	 
  1.2500	   9.4784	  0.0000	 
  1.2500	   9.9753	  0.0000	 
  1.5000	   2.2963	  0.0000	 
  1.5000	   2.7593	  0.0000	 
  1.5000	   3.2222	  0.0000	 
  1.5000	   3.6852	  0.0000	 
  1.5000	   4.1481	  0.0000	 
  1.5000	   4.6111	  0.0000	 
  1.5000	   5.0741	  0.0000	 
  1.5000	   5.5370	  0.0000	 
  1.5000	   6.0000	  0.0000	 
  1.5000	   6.4630	  0.0000	 
  1.5000	   6.9259	  0.0000	 
  1.5000	   7.3889	  0.0000	 
  1.5000	   7.8519	  0.0000	 
  1.5000	   8.3148	  0.0000	 
  1.5000	   8.7778	  0.0000	 
  1.5000	   9.2407	  0.0000	 
  1.5000	   9.7037	  0.0000	 
  1.7500	   2.5679	  0.0000	 
  1.7500	   2.9969	  0.0000	 
  1.7500	   3.4259	  0.0000	 
  1.7500	   3.8549	  0.0000	 
  1.7500	   4.2840	  0.0000	 
  1.7500	   4.7130	  0.0000	 
  1.7500	   5.1420	  0.0000	 
  1.7500	   5.5710	  0.0000	 
  1.7500	   6.0000	  0.0000	 
  1.7500	   6.4290	  0.0000	 
  1.7500	   6.8580	  0.0000	 
  1.7500	   7.2870	  0.0000	 
  1.7500	   7.7160	  0.0000	 
  1.7500	   8.1451	  0.0000	 
  1.7500	   8.5741	  0.0000	 
  1.7500	   9.0031	  0.0000	 
  1.7500	   9.4321	  0.0000	 
  2.0000	   2.8395	  0.0000	 
  2.0000	   3.2346	  0.0000	 
  2.0000	   3.6296	  0.0000	 
  2.0000	   4.0247	  0.0000	 
  2.0000	   4.4198	  0.0000	 
  2.0000	   4.8148	  0.0000	 
  2.0000	   5.2099	  0.0000	 
  2.0000	   5.6049	  0.0000	 
  2.0000	   6.0000	  0.0000	 
  2.0000	   6.3951	  0.0000	 
  2.0000	   6.7901	  0.0000	 
  2.0000	   7.1852	  0.0000	 
  2.0000	   7.5802	  0.0000	 
  2.0000	   7.9753	  0.0000	 
  2.0000	   8.3704	  0.0000	 
  2.0000	   8.7654	  0.0000	 
  2.0000	   9.1605	  0.0000	 
  2.2500	   3.1111	  0.0000	 
  2.2500	   3.4722	  0.0000	 
  2.2500	   3.8333	  0.0000	 
  2.2500	   4.1944	  0.0000	 
  2.2500	   4.5556	  0.0000	 
  2.2500	   4.9167	  0.0000	 
  2.2500	   5.2778	  0.0000	 
  2.2500	   5.6389	  0.0000	 
  2.2500	   6.0000	  0.0000	 
  2.2500	   6.3611	  0.0000	 
  2.2500	   6.7222	  0.0000	 
  2.2500	   7.0833	  0.0000	 
  2.2500	   7.4444	  0.0000	 
  2.2500	   7.8056	  0.0000	 
  2.2500	   8.1667	  0.0000	 
  2.2500	   8.5278	  0.0000	 
  2.2500	   8.8889	  0.0000	 
  2.5000	   3.3827	  0.0000	 
  2.5000	   3.7099	  0.0000	 
  2.5000	   4.0370	  0.0000	 
  2.5000	   4.3642	  0.0000	 
  2.5000	   4.6914	  0.0000	 
  2.5000	   5.0185	  0.0000	 
  2.5000	   5.3457	  0.0000	 
  2.5000	   5.6728	  0.0000	 
  2.5000	   6.0000	  0.0000	 
  2.5000	   6.3272	  0.0000	 
  2.5000	   6.6543	  0.0000	 
  2.5000	   6.9815	  0.0000	 
  2.5000	   7.3086	  0.0000	 
  2.5000	   7.6358	  0.0000	 
  2.5000	   7.9630	  0.0000	 
  2.5000	   8.2901	  0.0000	 
  2.5000	   8.6173	  0.0000	 
  2.7500	   3.6543	  0.0000	 
  2.7500	   3.9475	  0.0000	 
  2.7500	   4.2407	  0.0000	 
  2.7500	   4.5340	  0.0000	 
  2.7500	   4.8272	  0.0000	 
  2.7500	   5.1204	  0.0000	 
  2.7500	   5.4136	  0.0000	 
  2.7500	   5.7068	  0.0000	 
  2.7500	   6.0000	  0.0000	 
  2.7500	   6.2932	  0.0000	 
  2.7500	   6.5864	  0.0000	 
  2.7500	   6.8796	  0.0000	 
  2.7500	   7.1728	  0.0000	 
  2.7500	   7.4660	  0.0000	 
  2.7500	   7.7593	  0.0000	 
  2.7500	   8.0525	  0.0000	 
  2.7500	   8.3457	  0.0000	 
  3.0000	   3.9259	  0.0000	 
  3.0000	   4.1852	  0.0000	 
  3.0000	   4.4444	  0.0000	 
  3.0000	   4.7037	  0.0000	 
  3.0000	   4.9630	  0.0000	 
  3.0000	   5.2222	  0.0000	 
  3.0000	   5.4815	  0.0000	 
  3.0000	   5.7407	  0.0000	 
  3.0000	   6.0000	  0.0000	 
  3.0000	   6.2593	  0.0000	 
  3.0000	   6.5185	  0.0000	 
  3.0000	   6.7778	  0.0000	 
  3.0000	   7.0370	  0.0000	 
  3.0000	   7.2963	  0.0000	 
  3.0000	   7.5556	  0.0000	 
  3.0000	   7.8148	  0.0000	 
  3.0000	   8.0741	  0.0000	 
  3.2500	   4.1975	  0.0000	 
  3.2500	   4.4228	  0.0000	 
  3.2500	   4.6481	  0.0000	 
  3.2500	   4.8735	  0.0000	 
  3.2500	   5.0988	  0.0000	 
  3.2500	   5.3241	  0.0000	 
  3.2500	   5.5494	  0.0000	 
  3.2500	   5.7747	  0.0000	 
  3.2500	   6.0000	  0.0000	 
  3.2500	   6.2253	  0.0000	 
  3.2500	   6.4506	  0.0000	 
  3.2500	   6.6759	  0.0000	 
  3.2500	   6.9012	  0.0000	 
  3.2500	   7.1265	  0.0000	 
  3.2500	   7.3519	  0.0000	 
  3.2500	   7.5772	  0.0000	 
  3.2500	   7.8025	  0.0000	 
  3.5000	   4.4691	  0.0000	 
  3.5000	   4.6605	  0.0000	 
  3.5000	   4.8519	  0.0000	 
  3.5000	   5.0432	  0.0000	 
  3.5000	   5.2346	  0.0000	 
  3.5000	   5.4259	  0.0000	 
  3.5000	   5.6173	  0.0000	 
  3.5000	   5.8086	  0.0000	 
  3.5000	   6.0000	  0.0000	 
  3.5000	   6.1914	  0.0000	 
  3.5000	   6.3827	  0.0000	 
  3.5000	   6.5741	  0.0000	 
  3.5000	   6.7654	  0.0000	 
  3.5000	   6.9568	  0.0000	 
  3.5000	   7.1481	  0.0000	 
  3.5000	   7.3395	  0.0000	 
  3.5000	   7.5309	  0.0000	 
  3.7500	   4.7407	  0.0000	 
  3.7500	   4.8981	  0.0000	 
  3.7500	   5.0556	  0.0000	 
  3.7500	   5.2130	  0.0000	 
  3.7500	   5.3704	  0.0000	 
  3.7500	   5.5278	  0.0000	 
  3.7500	   5.6852	  0.0000	 
  3.7500	   5.8426	  0.0000	 
  3.7500	   6.0000	  0.0000	 
  3.7500	   6.1574	  0.0000	 
  3.7500	   6.3148	  0.0000	 
  3.7500	   6.4722	  0.0000	 
  3.7500	   6.6296	  0.0000	 
  3.7500	   6.7870	  0.0000	 
  3.7500	   6.9444	  0.0000	 
  3.7500	   7.1019	  0.0000	 
  3.7500	   7.2593	  0.0000	 
  4.0000	   5.0123	  0.0000	 
  4.0000	   5.1358	  0.0000	 
  4.0000	   5.2593	  0.0000	 
  4.0000	   5.3827	  0.0000	 
  4.0000	   5.5062	  0.0000	 
  4.0000	   5.6296	  0.0000	 
  4.0000	   5.7531	  0.0000	 
  4.0000	   5.8765	  0.0000	 
  4.0000	   6.0000	  0.0000	 
  4.0000	   6.1235	  0.0000	 
  4.0000	   6.2469	  0.0000	 
  4.0000	   6.3704	  0.0000	 
  4.0000	   6.4938	  0.0000	 
  4.0000	   6.6173	  0.0000	 
  4.0000	   6.7407	  0.0000	 
  4.0000	   6.8642	  0.0000	 
  4.0000	   6.9877	  0.0000	 
  4.2500	   5.2840	  0.0000	 
  4.2500	   5.3735	  0.0000	 
  4.2500	   5.4630	  0.0000	 
  4.2500	   5.5525	  0.0000	 
  4.2500	   5.6420	  0.0000	 
  4.2500	   5.7315	  0.0000	 
  4.2500	   5.8210	  0.0000	 
  4.2500	   5.9105	  0.0000	 
  4.2500	   6.0000	  0.0000	 
  4.2500	   6.0895	  0.0000	 
  4.2500	   6.1790	  0.0000	 
  4.2500	   6.2685	  0.0000	 
  4.2500	   6.3580	  0.0000	 
  4.2500	   6.4475	  0.0000	 
  4.2500	   6.5370	  0.0000	 
  4.2500	   6.6265	  0.0000	 
  4.2500	   6.7160	  0.0000	 
  4.5000	   5.5556	  0.0000	 
  4.5000	   5.6111	  0.0000	 
  4.5000	   5.6667	  0.0000	 
  4.5000	   5.7222	  0.0000	 
  4.5000	   5.7778	  0.0000	 
  4.5000	   5.8333	  0.0000	 
  4.5000	   5.8889	  0.0000	 
  4.5000	   5.9444	  0.0000	 
  4.5000	   6.0000	  0.0000	 
  4.5000	   6.0556	  0.0000	 
  4.5000	   6.1111	  0.0000	 
  4.5000	   6.1667	  0.0000	 
  4.5000	   6.2222	  0.0000	 
  4.5000	   6.2778	  0.0000	 
  4.5000	   6.3333	  0.0000	 
  4.5000	   6.3889	  0.0000	 
  4.5000	   6.4444	  0.0000	 
  0.0000	   0.0000	  0.0000	 
  0.0000	  12.0000	  0.0000	 
  0.2500	   0.3056	  0.0000	 
  0.2500	  11.6944	  0.0000	 
  0.5000	   0.6111	  0.0000	 
  0.5000	  11.3889	  0.0000	 
  0.7500	   0.9167	  0.0000	 
[...]
POINT_DATA 	    1085 
VECTORS U float 
 51.3000	  -0.0000	   0.0000	
 51.3000	   0.0000	   0.0000	
 51.3000	   0.0000	   0.0000	
 51.3000	   0.0000	   0.0000	
 51.3000	   0.0000	   0.0000	
 51.3000	   0.0000	   0.0000	
 51.3000	  -0.0000	   0.0000	
 51.3000	  -0.0000	   0.0000	
 51.3000	   0.0000	   0.0000	
 51.3000	  -0.0000	   0.0000	
 51.3000	   0.0000	   0.0000	
 51.3000	   0.0000	   0.0000	
 51.3000	  -0.0000	   0.0000	
 51.3000	  -0.0000	   0.0000	
 51.3000	   0.0000	   0.0000	
 51.3000	   0.0000	   0.0000	
 51.3000	   0.0000	   0.0000	
-86.5245	 -119.7698	   0.0000	
 51.9196	 -130.5657	   0.0000	
 58.0566	 -93.1469	   0.0000	
 59.7497	 -76.4441	   0.0000	
 59.9734	 -65.1367	   0.0000	
 56.1633	 -61.2915	   0.0000	
 57.1628	 -50.8219	   0.0000	
 57.9926	 -42.7957	   0.0000	
 58.1693	 -33.9374	   0.0000	
 58.9079	 -30.7195	   0.0000	
 58.2613	 -25.6362	   0.0000	
 58.1611	 -20.5227	   0.0000	
 57.5391	 -13.2659	   0.0000	
 57.5585	 -10.6508	   0.0000	
 57.3169	  -7.3297	   0.0000	
 58.2872	  -4.4093	   0.0000	
 57.0668	  -1.6174	   0.0000	
-30.4702	 -210.8628	   0.0000	
 26.3508	 -133.2186	   0.0000	
 38.1632	 -105.2826	   0.0000	
 45.0153	 -84.7677	   0.0000	
 54.7335	 -60.9830	   0.0000	
 52.9428	 -51.5809	   0.0000	
 55.4601	 -43.4904	   0.0000	
 56.1236	 -36.6052	   0.0000	
 56.6863	 -31.6542	   0.0000	
 57.8399	 -26.7353	   0.0000	
 57.6708	 -22.0653	   0.0000	
 57.8999	 -18.2523	   0.0000	
 56.7391	 -15.5414	   0.0000	
 57.9879	 -13.3417	   0.0000	
 57.7812	  -9.9869	   0.0000	
 57.2467	  -6.8467	   0.0000	
 56.6490	  -3.6604	   0.0000	
-36.0726	 -137.4357	   0.0000	
 18.5478	 -110.6608	   0.0000	
 36.7467	 -89.8499	   0.0000	
 40.6006	 -70.1614	   0.0000	
 49.2333	 -56.2079	   0.0000	
 50.6463	 -49.8086	   0.0000	
 52.9887	 -42.4976	   0.0000	
 54.1431	 -36.4658	   0.0000	
 54.8494	 -31.4371	   0.0000	
 56.0439	 -27.1503	   0.0000	
 56.3459	 -22.8841	   0.0000	
 56.8014	 -19.1890	   0.0000	
 56.5407	 -16.0456	   0.0000	
 57.9447	 -14.1904	   0.0000	
 56.8330	 -10.7870	   0.0000	
 56.5213	  -7.9368	   0.0000	
 56.6771	  -5.0999	   0.0000	
 -1.6272	 -106.1017	   0.0000	
 18.9974	 -89.3165	   0.0000	
 32.7450	 -73.5977	   0.0000	
 40.5889	 -63.9998	   0.0000	
 45.7110	 -54.4818	   0.0000	
 48.0348	 -47.2188	   0.0000	
 50.5541	 -40.9877	   0.0000	
 51.9490	 -35.5800	   0.0000	
 52.9346	 -30.9804	   0.0000	
 54.1283	 -26.9825	   0.0000	
 54.7127	 -23.0556	   0.0000	
 55.4140	 -19.7094	   0.0000	
 55.4693	 -16.8352	   0.0000	
 56.5679	 -14.8431	   0.0000	
 57.0774	 -11.1108	   0.0000	
 57.1925	  -8.4757	   0.0000	
 56.9909	  -6.1250	   0.0000	
  3.3662	 -80.9156	   0.0000	
 21.9423	 -75.7607	   0.0000	
 32.0287	 -66.7353	   0.0000	
 37.9802	 -58.0400	   0.0000	
 42.9070	 -50.6237	   0.0000	
 45.7444	 -44.7116	   0.0000	
 48.2316	 -39.3600	   0.0000	
 49.8160	 -34.6421	   0.0000	
 51.0056	 -30.4331	   0.0000	
 52.2140	 -26.7464	   0.0000	
 53.0151	 -23.1959	   0.0000	
 53.8151	 -20.0640	   0.0000	
 54.1997	 -17.1918	   0.0000	
 55.0886	 -14.7873	   0.0000	
 55.5784	 -12.0770	   0.0000	
 55.7242	  -9.4721	   0.0000	
 55.7302	  -7.1740	   0.0000	
 10.3119	 -70.1504	   0.0000	
 21.8047	 -66.3128	   0.0000	
 30.6954	 -58.6304	   0.0000	
 36.3556	 -52.8689	   0.0000	
 40.8077	 -47.1131	   0.0000	
 43.7165	 -42.2247	   0.0000	
 46.1250	 -37.7034	   0.0000	
 47.7922	 -33.5918	   0.0000	
 49.0885	 -29.8118	   0.0000	
 50.3268	 -26.4402	   0.0000	
 51.2488	 -23.2222	   0.0000	
 52.1684	 -20.3072	   0.0000	
 52.7518	 -17.6473	   0.0000	
 53.5430	 -15.3433	   0.0000	
 54.0728	 -12.9924	   0.0000	
 54.4171	 -10.6959	   0.0000	
 54.6543	  -8.6614	   0.0000	
 14.0289	 -58.7825	   0.0000	
 22.6900	 -57.4893	   0.0000	
 30.5088	 -52.7041	   0.0000	
 35.1685	 -48.1565	   0.0000	
 39.2134	 -43.7314	   0.0000	
 41.9537	 -39.7534	   0.0000	
 44.2167	 -36.0097	   0.0000	
 45.8862	 -32.4785	   0.0000	
 47.2328	 -29.0948	   0.0000	
 48.4532	 -26.0600	   0.0000	
 49.4805	 -23.1277	   0.0000	
 50.4777	 -20.4582	   0.0000	
 51.2348	 -17.9843	   0.0000	
 52.0116	 -15.8033	   0.0000	
 52.6168	 -13.6847	   0.0000	
 53.0577	 -11.6216	   0.0000	
 53.4834	  -9.7743	   0.0000	
 17.6552	 -51.8528	   0.0000	
 24.4020	 -51.5768	   0.0000	
 30.2702	 -47.3237	   0.0000	
 34.5098	 -44.1084	   0.0000	
 37.9096	 -40.6442	   0.0000	
 40.4575	 -37.4398	   0.0000	
 42.5088	 -34.3267	   0.0000	
 44.1067	 -31.3196	   0.0000	
 45.4278	 -28.3270	   0.0000	
 46.6146	 -25.5996	   0.0000	
 47.7147	 -22.9497	   0.0000	
 48.7457	 -20.4982	   0.0000	
 49.6345	 -18.2504	   0.0000	
 50.4630	 -16.2206	   0.0000	
 51.1437	 -14.3029	   0.0000	
 51.6618	 -12.4689	   0.0000	
 52.1921	 -10.8121	   0.0000	
 21.7541	 -45.3833	   0.0000	
 25.2569	 -45.5552	   0.0000	
 30.7277	 -42.8064	   0.0000	
 34.0092	 -40.3969	   0.0000	
 36.9577	 -37.7850	   0.0000	
 39.1618	 -35.2504	   0.0000	
 40.9778	 -32.7107	   0.0000	
 42.4047	 -30.1394	   0.0000	
 43.6716	 -27.5140	   0.0000	
 44.8005	 -25.0832	   0.0000	
 45.9193	 -22.6748	   0.0000	
 46.9975	 -20.4421	   0.0000	
 47.9695	 -18.3994	   0.0000	
 48.8593	 -16.5438	   0.0000	
 49.6231	 -14.8144	   0.0000	
 50.2348	 -13.1475	   0.0000	
 50.8386	 -11.6671	   0.0000	
 23.1646	 -40.7525	   0.0000	
 27.0842	 -41.0170	   0.0000	
 31.0443	 -38.9713	   0.0000	
 33.7932	 -37.1607	   0.0000	
 36.2073	 -35.2096	   0.0000	
 38.0520	 -33.2227	   0.0000	
 39.5956	 -31.1729	   0.0000	
 40.8019	 -29.0000	   0.0000	
 41.9442	 -26.6774	   0.0000	
 42.9954	 -24.4968	   0.0000	
 44.1011	 -22.3127	   0.0000	
 45.2087	 -20.2817	   0.0000	
 46.2478	 -18.4315	   0.0000	
 47.2077	 -16.7624	   0.0000	
 48.0366	 -15.2232	   0.0000	
 48.7385	 -13.7342	   0.0000	
 49.4902	 -12.4739	   0.0000	
 25.6551	 -36.9593	   0.0000	
 28.5106	 -37.0458	   0.0000	
 31.4493	 -35.7266	   0.0000	
 33.7235	 -34.3839	   0.0000	
 35.6081	 -32.9531	   0.0000	
 37.0988	 -31.4447	   0.0000	
 38.3049	 -29.7674	   0.0000	
 39.2633	 -27.9503	   0.0000	
 40.2292	 -25.8740	   0.0000	
 41.1676	 -23.8799	   0.0000	
 42.2429	 -21.8709	   0.0000	
 43.3597	 -20.0073	   0.0000	
 44.4547	 -18.3337	   0.0000	
 45.4863	 -16.8346	   0.0000	
 46.3963	 -15.4522	   0.0000	
 47.1563	 -14.1930	   0.0000	
 48.0685	 -13.0949	   0.0000	
 27.3617	 -34.0952	   0.0000	
 29.7928	 -33.4364	   0.0000	
 31.9508	 -32.8835	   0.0000	
 33.7514	 -31.9258	   0.0000	
 35.1864	 -30.9806	   0.0000	
 36.2053	 -29.8593	   0.0000	
 37.0985	 -28.4869	   0.0000	
 37.6969	 -26.9355	   0.0000	
 38.5002	 -25.0589	   0.0000	
 39.2587	 -23.2239	   0.0000	
 40.2871	 -21.3441	   0.0000	
 41.4153	 -19.6093	   0.0000	
 42.5727	 -18.0946	   0.0000	
 43.6546	 -16.7578	   0.0000	
 44.6495	 -15.5215	   0.0000	
 45.6249	 -14.5475	   0.0000	
 46.4139	 -13.5588	   0.0000	
 29.4172	 -31.3025	   0.0000	
 31.0421	 -30.8480	   0.0000	
 32.4458	 -30.7153	   0.0000	
 33.9350	 -30.1643	   0.0000	
 34.8176	 -29.5254	   0.0000	
 35.3363	 -28.8369	   0.0000	
 35.9222	 -27.7009	   0.0000	
 36.0414	 -26.3845	   0.0000	
 36.5573	 -24.5508	   0.0000	
 37.1786	 -22.6072	   0.0000	
 38.1621	 -20.7525	   0.0000	
 39.2824	 -19.0932	   0.0000	
 40.5231	 -17.6485	   0.0000	
 41.6910	 -16.3860	   0.0000	
 42.7484	 -15.3481	   0.0000	
 44.0275	 -14.6032	   0.0000	
 44.5248	 -13.5289	   0.0000	
 31.4911	 -28.9663	   0.0000	
 32.2308	 -28.8771	   0.0000	
 33.2642	 -28.8747	   0.0000	
 33.8151	 -28.5592	   0.0000	
 34.5729	 -28.0099	   0.0000	
 34.3560	 -27.8722	   0.0000	
 34.6963	 -26.6343	   0.0000	
 34.0507	 -25.4049	   0.0000	
 34.4874	 -23.6843	   0.0000	
 34.6602	 -21.9054	   0.0000	
 35.7000	 -20.0328	   0.0000	
 36.9129	 -18.3369	   0.0000	
 38.1398	 -16.9903	   0.0000	
 39.3940	 -15.7942	   0.0000	
 40.8571	 -15.1038	   0.0000	
 42.3784	 -14.6026	   0.0000	
 42.6717	 -14.0941	   0.0000	
 32.7924	 -27.7844	   0.0000	
 33.5125	 -27.9875	   0.0000	
 34.4147	 -28.4263	   0.0000	
 34.0743	 -29.2774	   0.0000	
 35.0421	 -29.4714	   0.0000	
 32.5571	 -30.1149	   0.0000	
 32.8915	 -28.3182	   0.0000	
 31.6643	 -27.1360	   0.0000	
 30.8366	 -24.8894	   0.0000	
 31.7300	 -21.9592	   0.0000	
 32.4101	 -19.5121	   0.0000	
 33.5006	 -17.2769	   0.0000	
 35.3219	 -15.4444	   0.0000	
 36.8018	 -14.6021	   0.0000	
 38.4939	 -13.7990	   0.0000	
 39.6887	 -13.7264	   0.0000	
 40.9544	 -12.4961	   0.0000	
 34.2272	 -26.0410	   0.0000	
 35.6495	 -26.6529	   0.0000	
 32.8830	 -27.1649	   0.0000	
 32.7000	 -25.7353	   0.0000	
 35.2035	 -24.3946	   0.0000	
 28.9430	 -27.5080	   0.0000	
 30.6100	 -26.1923	   0.0000	
 27.6318	 -23.7259	   0.0000	
 27.3353	 -21.4082	   0.0000	
 26.3641	 -19.8124	   0.0000	
 27.8058	 -16.9040	   0.0000	
 29.0950	 -14.6520	   0.0000	
 31.1381	 -14.6575	   0.0000	
 33.4614	 -13.6250	   0.0000	
 35.8111	 -13.3171	   0.0000	
 36.4148	 -13.5329	   0.0000	
 39.2073	 -12.5110	   0.0000	
 43.5187	 -36.8326	   0.0000	
 46.7409	 -41.6502	   0.0000	
 39.9028	 -46.8068	   0.0000	
 51.2762	 -53.1788	   0.0000	
 27.4117	 -54.9461	   0.0000	
 30.9425	 -52.7135	   0.0000	
 19.1859	 -46.8217	   0.0000	
 20.0114	 -39.5339	   0.0000	
 15.0983	 -33.5621	   0.0000	
 18.7462	 -26.7703	   0.0000	
 18.4565	 -21.0556	   0.0000	
 22.1747	 -15.4706	   0.0000	
 23.7952	 -10.5984	   0.0000	
 34.0175	  -7.2516	   0.0000	
 29.6330	  -6.7765	   0.0000	
 36.1264	  -5.6032	   0.0000	
 36.0507	  -5.1955	   0.0000	
 -0.0000	   0.0000	   0.0000	
  0.0000	   0.0000	   0.0000	
  0.0000	   0.0000	   0.0000	
 -0.0000	   0.0000	   0.0000	
 -0.0000	  -0.0000	   0.0000	
  0.0000	   0.0000	   0.0000	
 -0.0000	   0.0000	   0.0000	
 -0.0000	  -0.0000	   0.0000	
  0.0000	   0.0000	   0.0000	
  0.0000	   0.0000	   0.0000	
 -0.0000	   0.0000	   0.0000	
  0.0000	  -0.0000	   0.0000	
  0.0000	  -0.0000	   0.0000	
  0.0000	   0.0000	   0.0000	
 -0.0000	   0.0000	   0.0000	
 -0.0000	   0.0000	   0.0000	
  0.0000	  -0.0000	   0.0000	
 51.3000	   0.0000	   0.0000	
 51.3000	   0.0000	   0.0000	
-61.3827	 -35.3381	   0.0000	
 63.2344	   0.1825	   0.0000	
-139.4430	 -62.5686	   0.0000	
 53.3734	  -2.7599	   0.0000	
-57.5673	 -104.5249	   0.0000	
 55.0181	  -3.1447	   0.0000	
-65.0844	 -72.3248	   0.0000	
 54.7110	  -3.9229	   0.0000	
-38.7283	 -74.8372	   0.0000	
 55.1772	  -5.0068	   0.0000	
-24.5558	 -63.8033	   0.0000	
 54.1876	  -6.6210	   0.0000	
-13.0882	 -57.9730	   0.0000	
 53.3423	  -7.7873	   0.0000	
 -2.6826	 -52.0014	   0.0000	
 52.3795	  -8.8040	   0.0000	
  4.2651	 -44.9190	   0.0000	
 51.0854	  -9.7229	   0.0000	
 13.6015	 -42.5495	   0.0000	
 49.7477	 -10.8241	   0.0000	
 17.2637	 -37.8385	   0.0000	
 48.5788	 -11.4367	   0.0000	
 21.4008	 -33.8564	   0.0000	
 47.1626	 -11.9142	   0.0000	
 25.1798	 -30.8862	   0.0000	
 45.6219	 -12.0229	   0.0000	
 27.8302	 -28.6409	   0.0000	
 43.2504	 -11.9117	   0.0000	
 31.6662	 -27.5598	   0.0000	
 42.4395	  -9.6848	   0.0000	
 32.9322	 -25.9320	   0.0000	
 37.7119	  -7.5178	   0.0000	
 50.0481	 -27.9116	   0.0000	
 39.9423	  -0.3168	   0.0000	
  0.0000	   0.0000	   0.0000	
 -0.0000	   0.0000	   0.0000	
-49.0000	  -0.0000	   0.0000	
 54.3270	   0.0000	   0.0000	
-17.1572	  -8.6793	   0.0000	
 49.3242	  -2.6577	   0.0000	
-13.7820	  -9.2832	   0.0000	
 49.4644	  -3.3485	   0.0000	
 -6.3565	 -12.9439	   0.0000	
 49.2558	  -3.8536	   0.0000	
 -0.6911	 -15.4049	   0.0000	
 48.6624	  -4.5536	   0.0000	
  3.7599	 -16.8593	   0.0000	
 48.0671	  -5.2348	   0.0000	
  9.7029	 -18.8614	   0.0000	
 47.2886	  -5.8693	   0.0000	
  9.8986	 -18.9628	   0.0000	
 46.9584	  -6.6134	   0.0000	
 13.5857	 -19.2380	   0.0000	
 46.3156	  -7.2458	   0.0000	
 17.8954	 -20.1803	   0.0000	
 45.4107	  -8.1237	   0.0000	
 20.4940	 -20.1083	   0.0000	
 44.7894	  -8.7439	   0.0000	
 23.0666	 -19.6821	   0.0000	
 44.4154	  -9.2784	   0.0000	
 25.4693	 -18.9531	   0.0000	
 44.1296	  -9.7462	   0.0000	
 27.4596	 -17.2096	   0.0000	
 42.5970	 -10.8221	   0.0000	
 30.7796	 -16.1911	   0.0000	
 44.6559	 -10.8944	   0.0000	
 31.5551	 -13.4225	   0.0000	
 43.9150	 -11.8056	   0.0000	
 39.6045	  -8.5714	   0.0000	
 51.9549	 -10.3166	   0.0000	
 41.6634	  -9.0998	   0.0000	
 49.1237	  -2.9528	   0.0000	
 -0.0000	   0.0000	   0.0000	
 -0.0000	  -0.0000	   0.0000	
 19.1582	   0.0000	   0.0000	
 43.3711	  -0.0000	   0.0000	
 13.5774	  -1.6906	   0.0000	
 42.8656	  -0.8061	   0.0000	
 15.2861	  -3.5951	   0.0000	
 42.4811	  -1.5902	   0.0000	
 14.8819	  -4.9338	   0.0000	
 42.4817	  -2.3259	   0.0000	
 16.7488	  -5.9609	   0.0000	
 41.9655	  -3.0082	   0.0000	
 17.8045	  -6.9145	   0.0000	
 41.8266	  -3.6782	   0.0000	
 19.6386	  -7.4424	   0.0000	
 41.2087	  -4.2185	   0.0000	
 19.5796	  -8.5196	   0.0000	
 41.3314	  -5.0052	   0.0000	
 20.6518	  -9.1988	   0.0000	
 41.0495	  -5.7399	   0.0000	
 21.8868	  -9.4742	   0.0000	
 40.5722	  -6.3816	   0.0000	
 23.1863	  -9.8417	   0.0000	
 40.1313	  -7.1203	   0.0000	
 24.3789	 -10.1057	   0.0000	
 39.9345	  -7.8796	   0.0000	
 25.1375	  -9.8577	   0.0000	
 39.1012	  -8.5183	   0.0000	
 26.1348	  -9.6715	   0.0000	
 38.6622	  -9.5741	   0.0000	
 25.8726	  -9.2129	   0.0000	
 36.9170	 -11.2053	   0.0000	
 26.5804	  -8.3768	   0.0000	
 36.8924	 -14.6678	   0.0000	
 32.8455	  -6.8231	   0.0000	
 46.6077	 -16.8179	   0.0000	
 26.3150	  -9.0911	   0.0000	
 35.2044	 -16.6824	   0.0000	
 27.4979	 -13.0834	   0.0000	
 34.2841	 -15.1386	   0.0000	
 23.5318	   0.0000	   0.0000	
 36.9390	   0.0000	   0.0000	
 23.3909	  -0.7126	   0.0000	
 37.2906	  -0.6472	   0.0000	
 23.2412	  -1.3532	   0.0000	
 37.5236	  -1.1330	   0.0000	
 23.9779	  -2.1506	   0.0000	
 37.3450	  -1.6165	   0.0000	
 23.5903	  -2.6929	   0.0000	
 37.4458	  -2.0947	   0.0000	
 23.8828	  -3.5779	   0.0000	
 37.3791	  -2.6593	   0.0000	
 23.8451	  -3.9192	   0.0000	
 37.3904	  -3.0824	   0.0000	
 24.4615	  -4.5398	   0.0000	
 37.0930	  -3.6692	   0.0000	
 24.9248	  -5.1216	   0.0000	
 36.8427	  -4.2077	   0.0000	
 25.2783	  -5.3242	   0.0000	
 36.7313	  -4.6613	   0.0000	
 25.6409	  -5.9119	   0.0000	
 36.4880	  -5.2598	   0.0000	
 25.9368	  -6.3970	   0.0000	
 36.1342	  -5.8617	   0.0000	
 26.7266	  -6.4675	   0.0000	
 35.8780	  -6.2607	   0.0000	
 26.9044	  -6.9085	   0.0000	
 35.5113	  -6.8190	   0.0000	
 27.3859	  -7.1948	   0.0000	
 35.1098	  -7.2943	   0.0000	
 27.8881	  -7.5828	   0.0000	
 34.4765	  -7.4251	   0.0000	
 27.6048	  -8.1695	   0.0000	
 32.6797	  -7.3755	   0.0000	
 28.2667	  -8.0447	   0.0000	
 32.0400	  -9.2236	   0.0000	
 30.3222	  -8.2995	   0.0000	
 32.2806	  -9.7471	   0.0000	
 27.6853	   0.0000	   0.0000	
 33.8023	  -0.0000	   0.0000	
 27.0701	  -0.4632	   0.0000	
 34.4028	  -0.3977	   0.0000	
 27.0546	  -0.7511	   0.0000	
 34.4114	  -0.6646	   0.0000	
 27.1457	  -0.9716	   0.0000	
 34.3718	  -0.8580	   0.0000	
 27.1018	  -1.2682	   0.0000	
 34.3922	  -1.1573	   0.0000	
 27.0332	  -1.6736	   0.0000	
 34.4245	  -1.4981	   0.0000	
 26.8943	  -2.0841	   0.0000	
 34.5281	  -1.8733	   0.0000	
 27.1831	  -2.3963	   0.0000	
 34.3628	  -2.2186	   0.0000	
 27.3241	  -2.7683	   0.0000	
 34.2902	  -2.5866	   0.0000	
 27.2848	  -3.2285	   0.0000	
 34.3079	  -3.0035	   0.0000	
 27.4102	  -3.6688	   0.0000	
 34.2280	  -3.4021	   0.0000	
 27.6312	  -4.0225	   0.0000	
 34.0495	  -3.8376	   0.0000	
 27.8908	  -4.3857	   0.0000	
 33.8983	  -4.2825	   0.0000	
 28.0078	  -4.8544	   0.0000	
 33.7528	  -4.7913	   0.0000	
 28.3802	  -5.1571	   0.0000	
 33.3466	  -5.2087	   0.0000	
 28.7064	  -5.5209	   0.0000	
 33.0184	  -5.6874	   0.0000	
 29.0864	  -5.8827	   0.0000	
 32.6268	  -6.1754	   0.0000	
 29.4071	  -6.3049	   0.0000	
 32.2873	  -6.7734	   0.0000	
 29.9773	  -6.9470	   0.0000	
 31.4863	  -7.1025	   0.0000	
 29.0074	  -0.0000	   0.0000	
 32.5114	   0.0000	   0.0000	
 28.6758	  -0.2791	   0.0000	
 32.7416	  -0.2362	   0.0000	
 28.7792	  -0.4605	   0.0000	
 32.7166	  -0.4112	   0.0000	
 28.6926	  -0.6245	   0.0000	
 32.8112	  -0.5714	   0.0000	
 28.6708	  -0.6126	   0.0000	
 32.8084	  -0.5978	   0.0000	
 28.6767	  -0.8098	   0.0000	
 32.8013	  -0.7946	   0.0000	
 28.5618	  -1.1145	   0.0000	
 32.9202	  -1.0874	   0.0000	
 28.4866	  -1.4018	   0.0000	
 32.9868	  -1.3431	   0.0000	
 28.4629	  -1.6668	   0.0000	
 33.0328	  -1.6042	   0.0000	
 28.5146	  -1.9017	   0.0000	
 33.0130	  -1.8359	   0.0000	
 28.4495	  -2.3360	   0.0000	
 33.0617	  -2.2213	   0.0000	
 28.5557	  -2.6452	   0.0000	
 33.0045	  -2.5459	   0.0000	
 28.6797	  -2.9853	   0.0000	
 32.9136	  -2.8965	   0.0000	
 28.8281	  -3.3479	   0.0000	
 32.8028	  -3.2604	   0.0000	
 28.9651	  -3.7278	   0.0000	
 32.6744	  -3.6328	   0.0000	
 29.2419	  -4.0344	   0.0000	
 32.3999	  -3.9503	   0.0000	
 29.4168	  -4.4429	   0.0000	
 32.2704	  -4.3826	   0.0000	
 29.6877	  -4.8169	   0.0000	
 31.9526	  -4.7744	   0.0000	
 30.1071	  -5.1595	   0.0000	
 31.4457	  -5.1417	   0.0000	
  0.0000	   0.0000	   0.0000	
  0.0000	   0.0000	   0.0000	
 -0.0000	   0.0000	   0.0000	
  0.0000	  -0.0000	   0.0000	
 -0.0000	   0.0000	   0.0000	
  0.0000	   0.0000	   0.0000	
  0.0000	  -0.0000	   0.0000	
  0.0000	  -0.0000	   0.0000	
 -0.0000	  -0.0000	   0.0000	
  0.0000	  -0.0000	   0.0000	
  0.0000	   0.0000	   0.0000	
 -0.0000	   0.0000	   0.0000	
 -0.0000	   0.0000	   0.0000	
  0.0000	  -0.0000	   0.0000	
  0.0000	  -0.0000	   0.0000	
 -0.0000	   0.0000	   0.0000	
  0.0000	   0.0000	   0.0000	
  0.0000	   0.0000	   0.0000	
 32.9631	 -11.9914	   0.0000	
 42.0362	 -18.4156	   0.0000	
 31.8324	 -12.1706	   0.0000	
 40.6577	 -23.0811	   0.0000	
 31.6768	 -12.9867	   0.0000	
 38.8606	 -24.0313	   0.0000	
 31.7219	 -13.7827	   0.0000	
 37.5082	 -23.5536	   0.0000	
 31.7712	 -14.9689	   0.0000	
 36.1188	 -22.7681	   0.0000	
 31.9825	 -15.8616	   0.0000	
 35.2203	 -21.8946	   0.0000	
 32.3140	 -17.0089	   0.0000	
 33.9806	 -20.6169	   0.0000	
  0.0000	   0.0000	   0.0000	
  0.0000	   0.0000	   0.0000	
 27.2640	  -8.1095	   0.0000	
 29.2313	  -8.5459	   0.0000	
 28.2945	  -8.0965	   0.0000	
 28.4971	  -7.5541	   0.0000	
 28.3118	  -8.0337	   0.0000	
 28.8572	  -7.1600	   0.0000	
 28.4608	  -7.9473	   0.0000	
 29.0103	  -7.0119	   0.0000	
 28.6461	  -7.8408	   0.0000	
 29.1000	  -6.9094	   0.0000	
 28.7351	  -7.7177	   0.0000	
 29.0615	  -6.9385	   0.0000	
 28.9230	  -7.5603	   0.0000	
 29.1912	  -7.0419	   0.0000	
  0.0000	   0.0000	   0.0000	
  0.0000	   0.0000	   0.0000	
 30.3602	  -6.5552	   0.0000	
 31.3605	  -6.9612	   0.0000	
 30.4046	  -6.6720	   0.0000	
 32.2505	  -7.0223	   0.0000	
 30.5779	  -6.7460	   0.0000	
 32.0522	  -7.1355	   0.0000	
 30.6422	  -6.8288	   0.0000	
 31.8274	  -7.1641	   0.0000	
 30.7457	  -6.9006	   0.0000	
 31.6551	  -7.2262	   0.0000	
 30.8558	  -6.9666	   0.0000	
 31.5067	  -7.2222	   0.0000	
 30.9132	  -7.0167	   0.0000	
 31.3039	  -7.2389	   0.0000	
  0.0000	   0.0000	   0.0000	
  0.0000	   0.0000	   0.0000	
 30.3214	  -5.3631	   0.0000	
 31.3609	  -5.3021	   0.0000	
 30.1020	  -5.2529	   0.0000	
 31.2177	  -5.1819	   0.0000	
 30.2305	  -5.1974	   0.0000	
 30.9637	  -5.1449	   0.0000	
 30.3099	  -5.1729	   0.0000	
 30.8913	  -5.1253	   0.0000	
 30.3836	  -5.1452	   0.0000	
 30.8885	  -5.1051	   0.0000	
 30.4549	  -5.1316	   0.0000	
 30.7882	  -5.0984	   0.0000	
 30.5656	  -5.1088	   0.0000	
 30.7769	  -5.0906	   0.0000	
 -0.0000	  -0.0000	   0.0000	
  0.0000	  -0.0000	   0.0000	
  0.0000	   0.0000	   0.0000	
 31.7532	 -17.9872	   0.0000	
 33.6685	 -19.0483	   0.0000	
 34.5797	 -20.2128	   0.0000	
 29.3811	  -7.4637	   0.0000	
 28.7362	  -7.2676	   0.0000	
 28.5288	  -7.0979	   0.0000	
 30.9591	  -7.0286	   0.0000	
 31.2698	  -7.1581	   0.0000	
 31.3736	  -7.2415	   0.0000	
 30.6377	  -5.0773	   0.0000	
 30.5524	  -5.0768	   0.0000	
 30.6371	  -5.0996	   0.0000	
 29.8811	  -4.7664	   0.0000	
 31.7598	  -4.7725	   0.0000	
 30.0220	  -4.7610	   0.0000	
 31.6245	  -4.7832	   0.0000	
 30.0910	  -4.7505	   0.0000	
 31.5368	  -4.7864	   0.0000	
 30.1995	  -4.7810	   0.0000	
 31.4546	  -4.8409	   0.0000	
 30.3182	  -4.8373	   0.0000	
 31.3161	  -4.8873	   0.0000	
 30.4544	  -4.8598	   0.0000	
 31.2169	  -4.8731	   0.0000	
 30.6028	  -4.8750	   0.0000	
 31.0574	  -4.8757	   0.0000	
 30.7312	  -4.8846	   0.0000	
 30.9037	  -4.8744	   0.0000	
 29.6588	  -4.3897	   0.0000	
 31.9996	  -4.3754	   0.0000	
 29.7859	  -4.3787	   0.0000	