# vtk DataFile Version 3.0 
Results 
ASCII 
DATASET UNSTRUCTURED_GRID 
POINTS 	    1451 float 
  0.0000	   0.6000	  0.0000	 
  0.0000	   1.2000	  0.0000	 
  0.0000	   1.8000	  0.0000	 
  0.0000	   2.4000	  0.0000	 
  0.0000	   3.0000	  0.0000	 
  0.0000	   3.6000	  0.0000	 
  0.0000	   4.2000	  0.0000	 
  0.0000	   4.8000	  0.0000	 
  0.0000	   5.4000	  0.0000	 
  0.0000	   6.0000	  0.0000	 
  0.0000	   6.6000	  0.0000	 
  0.0000	   7.2000	  0.0000	 
  0.0000	   7.8000	  0.0000	 
  0.0000	   8.4000	  0.0000	 
  0.0000	   9.0000	  0.0000	 
  0.0000	   9.6000	  0.0000	 
  0.0000	  10.2000	  0.0000	 
  0.0000	  10.8000	  0.0000	 
  0.0000	  11.4000	  0.0000	 
  0.2250	   0.8475	  0.0000	 
  0.2250	   1.4200	  0.0000	 
  0.2250	   1.9925	  0.0000	 
  0.2250	   2.5650	  0.0000	 
  0.2250	   3.1375	  0.0000	 
  0.2250	   3.7100	  0.0000	 
  0.2250	   4.2825	  0.0000	 
  0.2250	   4.8550	  0.0000	 
  0.2250	   5.4275	  0.0000	 
  0.2250	   6.0000	  0.0000	 
  0.2250	   6.5725	  0.0000	 
  0.2250	   7.1450	  0.0000	 
  0.2250	   7.7175	  0.0000	 
  0.2250	   8.2900	  0.0000	 
  0.2250	   8.8625	  0.0000	 
  0.2250	   9.4350	  0.0000	 
  0.2250	  10.0075	  0.0000	 
  0.2250	  10.5800	  0.0000	 
  0.2250	  11.1525	  0.0000	 
  0.4500	   1.0950	  0.0000	 
  0.4500	   1.6400	  0.0000	 
  0.4500	   2.1850	  0.0000	 
  0.4500	   2.7300	  0.0000	 
  0.4500	   3.2750	  0.0000	 
  0.4500	   3.8200	  0.0000	 
  0.4500	   4.3650	  0.0000	 
  0.4500	   4.9100	  0.0000	 
  0.4500	   5.4550	  0.0000	 
  0.4500	   6.0000	  0.0000	 
  0.4500	   6.5450	  0.0000	 
  0.4500	   7.0900	  0.0000	 
  0.4500	   7.6350	  0.0000	 
  0.4500	   8.1800	  0.0000	 
  0.4500	   8.7250	  0.0000	 
  0.4500	   9.2700	  0.0000	 
  0.4500	   9.8150	  0.0000	 
  0.4500	  10.3600	  0.0000	 
  0.4500	  10.9050	  0.0000	 
  0.6750	   1.3425	  0.0000	 
  0.6750	   1.8600	  0.0000	 
  0.6750	   2.3775	  0.0000	 
  0.6750	   2.8950	  0.0000	 
  0.6750	   3.4125	  0.0000	 
  0.6750	   3.9300	  0.0000	 
  0.6750	   4.4475	  0.0000	 
  0.6750	   4.9650	  0.0000	 
  0.6750	   5.4825	  0.0000	 
  0.6750	   6.0000	  0.0000	 
  0.6750	   6.5175	  0.0000	 
  0.6750	   7.0350	  0.0000	 
  0.6750	   7.5525	  0.0000	 
  0.6750	   8.0700	  0.0000	 
  0.6750	   8.5875	  0.0000	 
  0.6750	   9.1050	  0.0000	 
  0.6750	   9.6225	  0.0000	 
  0.6750	  10.1400	  0.0000	 
  0.6750	  10.6575	  0.0000	 
  0.9000	   1.5900	  0.0000	 
  0.9000	   2.0800	  0.0000	 
  0.9000	   2.5700	  0.0000	 
  0.9000	   3.0600	  0.0000	 
  0.9000	   3.5500	  0.0000	 
  0.9000	   4.0400	  0.0000	 
  0.9000	   4.5300	  0.0000	 
  0.9000	   5.0200	  0.0000	 
  0.9000	   5.5100	  0.0000	 
  0.9000	   6.0000	  0.0000	 
  0.9000	   6.4900	  0.0000	 
  0.9000	   6.9800	  0.0000	 
  0.9000	   7.4700	  0.0000	 
  0.9000	   7.9600	  0.0000	 
  0.9000	   8.4500	  0.0000	 
  0.9000	   8.9400	  0.0000	 
  0.9000	   9.4300	  0.0000	 
  0.9000	   9.9200	  0.0000	 
  0.9000	  10.4100	  0.0000	 
  1.1250	   1.8375	  0.0000	 
  1.1250	   2.3000	  0.0000	 
  1.1250	   2.7625	  0.0000	 
  1.1250	   3.2250	  0.0000	 
  1.1250	   3.6875	  0.0000	 
  1.1250	   4.1500	  0.0000	 
  1.1250	   4.6125	  0.0000	 
  1.1250	   5.0750	  0.0000	 
  1.1250	   5.5375	  0.0000	 
  1.1250	   6.0000	  0.0000	 
  1.1250	   6.4625	  0.0000	 
  1.1250	   6.9250	  0.0000	 
  1.1250	   7.3875	  0.0000	 
  1.1250	   7.8500	  0.0000	 
  1.1250	   8.3125	  0.0000	 
  1.1250	   8.7750	  0.0000	 
  1.1250	   9.2375	  0.0000	 
  1.1250	   9.7000	  0.0000	 
  1.1250	  10.1625	  0.0000	 
  1.3500	   2.0850	  0.0000	 
  1.3500	   2.5200	  0.0000	 
  1.3500	   2.9550	  0.0000	 
  1.3500	   3.3900	  0.0000	 
  1.3500	   3.8250	  0.0000	 
  1.3500	   4.2600	  0.0000	 
  1.3500	   4.6950	  0.0000	 
  1.3500	   5.1300	  0.0000	 
  1.3500	   5.5650	  0.0000	 
  1.3500	   6.0000	  0.0000	 
  1.3500	   6.4350	  0.0000	 
  1.3500	   6.8700	  0.0000	 
  1.3500	   7.3050	  0.0000	 
  1.3500	   7.7400	  0.0000	 
  1.3500	   8.1750	  0.0000	 
  1.3500	   8.6100	  0.0000	 
  1.3500	   9.0450	  0.0000	 
  1.3500	   9.4800	  0.0000	 
  1.3500	   9.9150	  0.0000	 
  1.5750	   2.3325	  0.0000	 
  1.5750	   2.7400	  0.0000	 
  1.5750	   3.1475	  0.0000	 
  1.5750	   3.5550	  0.0000	 
  1.5750	   3.9625	  0.0000	 
  1.5750	   4.3700	  0.0000	 
  1.5750	   4.7775	  0.0000	 
  1.5750	   5.1850	  0.0000	 
  1.5750	   5.5925	  0.0000	 
  1.5750	   6.0000	  0.0000	 
  1.5750	   6.4075	  0.0000	 
  1.5750	   6.8150	  0.0000	 
  1.5750	   7.2225	  0.0000	 
  1.5750	   7.6300	  0.0000	 
  1.5750	   8.0375	  0.0000	 
  1.5750	   8.4450	  0.0000	 
  1.5750	   8.8525	  0.0000	 
  1.5750	   9.2600	  0.0000	 
  1.5750	   9.6675	  0.0000	 
  1.8000	   2.5800	  0.0000	 
  1.8000	   2.9600	  0.0000	 
  1.8000	   3.3400	  0.0000	 
  1.8000	   3.7200	  0.0000	 
  1.8000	   4.1000	  0.0000	 
  1.8000	   4.4800	  0.0000	 
  1.8000	   4.8600	  0.0000	 
  1.8000	   5.2400	  0.0000	 
  1.8000	   5.6200	  0.0000	 
  1.8000	   6.0000	  0.0000	 
  1.8000	   6.3800	  0.0000	 
  1.8000	   6.7600	  0.0000	 
  1.8000	   7.1400	  0.0000	 
  1.8000	   7.5200	  0.0000	 
  1.8000	   7.9000	  0.0000	 
  1.8000	   8.2800	  0.0000	 
  1.8000	   8.6600	  0.0000	 
  1.8000	   9.0400	  0.0000	 
  1.8000	   9.4200	  0.0000	 
  2.0250	   2.8275	  0.0000	 
  2.0250	   3.1800	  0.0000	 
  2.0250	   3.5325	  0.0000	 
  2.0250	   3.8850	  0.0000	 
  2.0250	   4.2375	  0.0000	 
  2.0250	   4.5900	  0.0000	 
  2.0250	   4.9425	  0.0000	 
  2.0250	   5.2950	  0.0000	 
  2.0250	   5.6475	  0.0000	 
  2.0250	   6.0000	  0.0000	 
  2.0250	   6.3525	  0.0000	 
  2.0250	   6.7050	  0.0000	 
  2.0250	   7.0575	  0.0000	 
  2.0250	   7.4100	  0.0000	 
  2.0250	   7.7625	  0.0000	 
  2.0250	   8.1150	  0.0000	 
  2.0250	   8.4675	  0.0000	 
  2.0250	   8.8200	  0.0000	 
  2.0250	   9.1725	  0.0000	 
  2.2500	   3.0750	  0.0000	 
  2.2500	   3.4000	  0.0000	 
  2.2500	   3.7250	  0.0000	 
  2.2500	   4.0500	  0.0000	 
  2.2500	   4.3750	  0.0000	 
  2.2500	   4.7000	  0.0000	 
  2.2500	   5.0250	  0.0000	 
  2.2500	   5.3500	  0.0000	 
  2.2500	   5.6750	  0.0000	 
  2.2500	   6.0000	  0.0000	 
  2.2500	   6.3250	  0.0000	 
  2.2500	   6.6500	  0.0000	 
  2.2500	   6.9750	  0.0000	 
  2.2500	   7.3000	  0.0000	 
  2.2500	   7.6250	  0.0000	 
  2.2500	   7.9500	  0.0000	 
  2.2500	   8.2750	  0.0000	 
  2.2500	   8.6000	  0.0000	 
  2.2500	   8.9250	  0.0000	 
  2.4750	   3.3225	  0.0000	 
  2.4750	   3.6200	  0.0000	 
  2.4750	   3.9175	  0.0000	 
  2.4750	   4.2150	  0.0000	 
  2.4750	   4.5125	  0.0000	 
  2.4750	   4.8100	  0.0000	 
  2.4750	   5.1075	  0.0000	 
  2.4750	   5.4050	  0.0000	 
  2.4750	   5.7025	  0.0000	 
  2.4750	   6.0000	  0.0000	 
  2.4750	   6.2975	  0.0000	 
  2.4750	   6.5950	  0.0000	 
  2.4750	   6.8925	  0.0000	 
  2.4750	   7.1900	  0.0000	 
  2.4750	   7.4875	  0.0000	 
  2.4750	   7.7850	  0.0000	 
  2.4750	   8.0825	  0.0000	 
  2.4750	   8.3800	  0.0000	 
  2.4750	   8.6775	  0.0000	 
  2.7000	   3.5700	  0.0000	 
  2.7000	   3.8400	  0.0000	 
  2.7000	   4.1100	  0.0000	 
  2.7000	   4.3800	  0.0000	 
  2.7000	   4.6500	  0.0000	 
  2.7000	   4.9200	  0.0000	 
  2.7000	   5.1900	  0.0000	 
  2.7000	   5.4600	  0.0000	 
  2.7000	   5.7300	  0.0000	 
  2.7000	   6.0000	  0.0000	 
  2.7000	   6.2700	  0.0000	 
  2.7000	   6.5400	  0.0000	 
  2.7000	   6.8100	  0.0000	 
  2.7000	   7.0800	  0.0000	 
  2.7000	   7.3500	  0.0000	 
  2.7000	   7.6200	  0.0000	 
  2.7000	   7.8900	  0.0000	 
  2.7000	   8.1600	  0.0000	 
  2.7000	   8.4300	  0.0000	 
  2.9250	   3.8175	  0.0000	 
  2.9250	   4.0600	  0.0000	 
  2.9250	   4.3025	  0.0000	 
  2.9250	   4.5450	  0.0000	 
  2.9250	   4.7875	  0.0000	 
  2.9250	   5.0300	  0.0000	 
  2.9250	   5.2725	  0.0000	 
  2.9250	   5.5150	  0.0000	 
  2.9250	   5.7575	  0.0000	 
  2.9250	   6.0000	  0.0000	 
  2.9250	   6.2425	  0.0000	 
  2.9250	   6.4850	  0.0000	 
  2.9250	   6.7275	  0.0000	 
  2.9250	   6.9700	  0.0000	 
  2.9250	   7.2125	  0.0000	 
  2.9250	   7.4550	  0.0000	 
  2.9250	   7.6975	  0.0000	 
  2.9250	   7.9400	  0.0000	 
  2.9250	   8.1825	  0.0000	 
  3.1500	   4.0650	  0.0000	 
  3.1500	   4.2800	  0.0000	 
  3.1500	   4.4950	  0.0000	 
  3.1500	   4.7100	  0.0000	 
  3.1500	   4.9250	  0.0000	 
  3.1500	   5.1400	  0.0000	 
  3.1500	   5.3550	  0.0000	 
  3.1500	   5.5700	  0.0000	 
  3.1500	   5.7850	  0.0000	 
  3.1500	   6.0000	  0.0000	 
  3.1500	   6.2150	  0.0000	 
  3.1500	   6.4300	  0.0000	 
  3.1500	   6.6450	  0.0000	 
  3.1500	   6.8600	  0.0000	 
  3.1500	   7.0750	  0.0000	 
  3.1500	   7.2900	  0.0000	 
  3.1500	   7.5050	  0.0000	 
  3.1500	   7.7200	  0.0000	 
  3.1500	   7.9350	  0.0000	 
  3.3750	   4.3125	  0.0000	 
  3.3750	   4.5000	  0.0000	 
  3.3750	   4.6875	  0.0000	 
  3.3750	   4.8750	  0.0000	 
  3.3750	   5.0625	  0.0000	 
  3.3750	   5.2500	  0.0000	 
  3.3750	   5.4375	  0.0000	 
  3.3750	   5.6250	  0.0000	 
  3.3750	   5.8125	  0.0000	 
  3.3750	   6.0000	  0.0000	 
  3.3750	   6.1875	  0.0000	 
  3.3750	   6.3750	  0.0000	 
  3.3750	   6.5625	  0.0000	 
  3.3750	   6.7500	  0.0000	 
  3.3750	   6.9375	  0.0000	 
  3.3750	   7.1250	  0.0000	 
  3.3750	   7.3125	  0.0000	 
  3.3750	   7.5000	  0.0000	 
  3.3750	   7.6875	  0.0000	 
  3.6000	   4.5600	  0.0000	 
  3.6000	   4.7200	  0.0000	 
  3.6000	   4.8800	  0.0000	 
  3.6000	   5.0400	  0.0000	 
  3.6000	   5.2000	  0.0000	 
  3.6000	   5.3600	  0.0000	 
  3.6000	   5.5200	  0.0000	 
  3.6000	   5.6800	  0.0000	 
  3.6000	   5.8400	  0.0000	 
  3.6000	   6.0000	  0.0000	 
  3.6000	   6.1600	  0.0000	 
  3.6000	   6.3200	  0.0000	 
  3.6000	   6.4800	  0.0000	 
  3.6000	   6.6400	  0.0000	 
  3.6000	   6.8000	  0.0000	 
  3.6000	   6.9600	  0.0000	 
  3.6000	   7.1200	  0.0000	 
  3.6000	   7.2800	  0.0000	 
  3.6000	   7.4400	  0.0000	 
  3.8250	   4.8075	  0.0000	 
  3.8250	   4.9400	  0.0000	 
  3.8250	   5.0725	  0.0000	 
  3.8250	   5.2050	  0.0000	 
  3.8250	   5.3375	  0.0000	 
  3.8250	   5.4700	  0.0000	 
  3.8250	   5.6025	  0.0000	 
[...]
POINT_DATA 	    1451 
VECTORS U float 
 50.0000	   0.0000	   0.0000	
 50.0000	   0.0000	   0.0000	
 50.0000	   0.0000	   0.0000	
 50.0000	   0.0000	   0.0000	
 50.0000	  -0.0000	   0.0000	
 50.0000	  -0.0000	   0.0000	
 50.0000	   0.0000	   0.0000	
 50.0000	  -0.0000	   0.0000	
 50.0000	  -0.0000	   0.0000	
 50.0000	   0.0000	   0.0000	
 50.0000	  -0.0000	   0.0000	
 50.0000	  -0.0000	   0.0000	
 50.0000	   0.0000	   0.0000	
 50.0000	   0.0000	   0.0000	
 50.0000	  -0.0000	   0.0000	
 50.0000	  -0.0000	   0.0000	
 50.0000	   0.0000	   0.0000	
 50.0000	   0.0000	   0.0000	
 50.0000	  -0.0000	   0.0000	
 44.7794	  43.3941	   0.0000	
 56.3353	  -4.3014	   0.0000	
 47.8704	  42.8685	   0.0000	
 49.6047	  11.0500	   0.0000	
 51.2528	  30.0722	   0.0000	
 46.0075	  36.7841	   0.0000	
 48.1294	  58.4608	   0.0000	
 49.4437	  65.6746	   0.0000	
 49.3182	  70.8561	   0.0000	
 48.2598	  74.8688	   0.0000	
 51.4572	  77.9820	   0.0000	
 49.6609	  72.0720	   0.0000	
 52.4140	  67.8941	   0.0000	
 52.1818	  48.6521	   0.0000	
 50.0074	  38.7839	   0.0000	
 50.2513	  35.0951	   0.0000	
 50.2151	  34.9621	   0.0000	
 48.9027	  31.4858	   0.0000	
 51.2297	  29.3437	   0.0000	
 83.4618	  18.5043	   0.0000	
  6.9160	  46.4270	   0.0000	
 76.2864	  44.6814	   0.0000	
 34.6009	  48.1106	   0.0000	
 49.7736	  58.4875	   0.0000	
 35.3150	  59.5403	   0.0000	
 44.3540	  65.6940	   0.0000	
 46.8442	  69.7344	   0.0000	
 48.4513	  70.5824	   0.0000	
 48.0945	  71.5986	   0.0000	
 49.0801	  72.5216	   0.0000	
 52.3852	  79.4005	   0.0000	
 52.8765	  79.2191	   0.0000	
 63.3289	  79.2672	   0.0000	
 54.2484	  78.4380	   0.0000	
 53.0612	  71.0124	   0.0000	
 49.9269	  63.2720	   0.0000	
 52.5122	  58.8010	   0.0000	
 52.5044	  61.7627	   0.0000	
 48.9014	  63.2636	   0.0000	
 38.9633	  43.6959	   0.0000	
 62.1529	  68.9383	   0.0000	
 33.3804	  63.3465	   0.0000	
 50.1036	  67.8661	   0.0000	
 36.4135	  63.9387	   0.0000	
 46.1247	  62.6621	   0.0000	
 46.3581	  63.2234	   0.0000	
 47.3838	  67.0048	   0.0000	
 46.7750	  69.7952	   0.0000	
 49.4371	  72.6680	   0.0000	
 48.8998	  70.9583	   0.0000	
 50.7797	  77.7672	   0.0000	
 59.2850	  80.0573	   0.0000	
 53.0123	  88.8799	   0.0000	
 53.8227	  94.8825	   0.0000	
 55.0591	  91.7245	   0.0000	
 56.5865	  78.8705	   0.0000	
 43.1878	  82.1756	   0.0000	
 21.7914	  62.4788	   0.0000	
 44.0691	  49.6266	   0.0000	
 51.5971	  78.6531	   0.0000	
 37.6414	  65.8354	   0.0000	
 47.2199	  69.1589	   0.0000	
 36.4812	  62.8539	   0.0000	
 46.6090	  65.2170	   0.0000	
 44.1694	  68.3130	   0.0000	
 46.7894	  70.3050	   0.0000	
 45.9890	  71.8809	   0.0000	
 47.5872	  73.1981	   0.0000	
 49.7556	  77.1942	   0.0000	
 47.6768	  77.0720	   0.0000	
 58.5650	  78.9156	   0.0000	
 50.8564	  86.7489	   0.0000	
 51.3544	  92.8138	   0.0000	
 55.3633	 101.0059	   0.0000	
 60.9383	  99.1084	   0.0000	
 46.9624	  87.9974	   0.0000	
 53.1771	  58.9613	   0.0000	
 33.1961	  60.0342	   0.0000	
 47.6324	  74.3354	   0.0000	
 42.5959	  61.4078	   0.0000	
 47.7703	  64.7539	   0.0000	
 37.6361	  61.8590	   0.0000	
 45.7259	  64.8356	   0.0000	
 43.2693	  66.8876	   0.0000	
 45.7824	  69.2618	   0.0000	
 44.8020	  71.8728	   0.0000	
 47.4367	  74.1840	   0.0000	
 47.5100	  74.1751	   0.0000	
 48.0201	  78.5855	   0.0000	
 54.4200	  76.3666	   0.0000	
 49.2351	  84.7464	   0.0000	
 47.6276	  88.2829	   0.0000	
 50.1084	  91.5299	   0.0000	
 57.1015	  97.2825	   0.0000	
 66.1657	 102.4626	   0.0000	
 43.6426	  62.1240	   0.0000	
 35.5760	  50.5816	   0.0000	
 51.3249	  58.8512	   0.0000	
 40.4035	  57.3420	   0.0000	
 45.6177	  65.2340	   0.0000	
 36.9293	  62.4894	   0.0000	
 45.2658	  65.9200	   0.0000	
 41.5582	  67.8868	   0.0000	
 44.9138	  70.4300	   0.0000	
 44.0826	  71.9157	   0.0000	
 45.6198	  73.6051	   0.0000	
 48.0726	  76.4042	   0.0000	
 45.1458	  76.6409	   0.0000	
 54.3795	  78.8141	   0.0000	
 47.8668	  82.3513	   0.0000	
 47.8736	  82.4446	   0.0000	
 47.6793	  82.9038	   0.0000	
 51.9034	  83.0549	   0.0000	
 54.7780	  93.0401	   0.0000	
 46.5921	  63.3846	   0.0000	
 36.8692	  52.4843	   0.0000	
 48.4322	  66.9623	   0.0000	
 38.3221	  62.5021	   0.0000	
 45.0968	  66.8769	   0.0000	
 37.1582	  63.6880	   0.0000	
 44.0522	  67.2101	   0.0000	
 40.5970	  68.6819	   0.0000	
 43.7869	  70.8364	   0.0000	
 43.0042	  73.2635	   0.0000	
 44.7986	  74.9960	   0.0000	
 46.1942	  76.3190	   0.0000	
 45.6639	  79.6486	   0.0000	
 50.4242	  77.2749	   0.0000	
 48.3769	  85.7658	   0.0000	
 48.1131	  83.6254	   0.0000	
 46.8113	  84.8559	   0.0000	
 49.8662	  84.2591	   0.0000	
 47.6893	  87.0512	   0.0000	
 43.1190	  64.8877	   0.0000	
 38.0538	  56.0243	   0.0000	
 46.6352	  64.3999	   0.0000	
 37.4534	  59.6874	   0.0000	
 44.5649	  65.4385	   0.0000	
 36.3307	  63.3733	   0.0000	
 42.9976	  67.2852	   0.0000	
 39.3987	  68.7102	   0.0000	
 42.4838	  71.3116	   0.0000	
 42.1049	  73.2573	   0.0000	
 43.4093	  74.9578	   0.0000	
 45.8985	  76.3714	   0.0000	
 43.4303	  78.0447	   0.0000	
 51.0140	  78.2325	   0.0000	
 44.0831	  81.1745	   0.0000	
 50.0177	  83.6332	   0.0000	
 46.0305	  83.8310	   0.0000	
 48.3735	  84.2238	   0.0000	
 46.7974	  91.2360	   0.0000	
 43.5546	  61.3758	   0.0000	
 38.3757	  56.8417	   0.0000	
 44.7683	  64.4138	   0.0000	
 36.9290	  60.9326	   0.0000	
 42.7287	  66.2737	   0.0000	
 35.9576	  64.9095	   0.0000	
 41.5348	  68.3319	   0.0000	
 38.2922	  69.8423	   0.0000	
 41.0649	  72.2434	   0.0000	
 41.0964	  74.4121	   0.0000	
 42.0640	  76.0367	   0.0000	
 44.9817	  77.7797	   0.0000	
 42.6492	  79.5407	   0.0000	
 48.7992	  78.8432	   0.0000	
 45.1412	  83.9352	   0.0000	
 46.3485	  80.4199	   0.0000	
 47.7506	  85.8517	   0.0000	
 47.0480	  82.9299	   0.0000	
 41.8328	  90.2526	   0.0000	
 41.5750	  60.3111	   0.0000	
 37.6286	  57.5142	   0.0000	
 43.3283	  63.6822	   0.0000	
 35.3229	  60.5643	   0.0000	
 41.3394	  65.9784	   0.0000	
 34.9455	  64.8602	   0.0000	
 39.9270	  68.6481	   0.0000	
 36.9167	  70.3154	   0.0000	
 39.5595	  72.6062	   0.0000	
 39.9188	  74.6670	   0.0000	
 40.8492	  76.3033	   0.0000	
 43.8566	  77.3482	   0.0000	
 41.7605	  79.7749	   0.0000	
 48.2126	  77.7080	   0.0000	
 42.3940	  82.2662	   0.0000	
 49.7773	  79.7023	   0.0000	
 41.6679	  82.0801	   0.0000	
 50.3569	  83.6191	   0.0000	
 40.8280	  86.7741	   0.0000	
 39.0626	  60.6697	   0.0000	
 38.1820	  58.6794	   0.0000	
 40.4971	  63.5964	   0.0000	
 34.6578	  61.7811	   0.0000	
 39.4161	  66.5091	   0.0000	
 34.0712	  66.0249	   0.0000	
 37.9994	  69.7242	   0.0000	
 35.8689	  71.0557	   0.0000	
 37.8462	  73.7766	   0.0000	
 38.5485	  76.0803	   0.0000	
 39.4440	  78.0423	   0.0000	
 42.8845	  79.1363	   0.0000	
 40.2426	  81.1356	   0.0000	
 48.1580	  79.7403	   0.0000	
 40.9520	  83.1711	   0.0000	
 49.4727	  79.5990	   0.0000	
 43.2067	  84.4583	   0.0000	
 44.4730	  81.6001	   0.0000	
 45.2706	  89.6888	   0.0000	
 40.2439	  61.1640	   0.0000	
 35.5195	  59.7800	   0.0000	
 38.6202	  63.4739	   0.0000	
 33.1037	  61.5042	   0.0000	
 37.0073	  66.3103	   0.0000	
 32.4587	  66.7847	   0.0000	
 36.1179	  70.0974	   0.0000	
 33.9850	  72.2479	   0.0000	
 35.9563	  74.4421	   0.0000	
 37.1775	  76.3390	   0.0000	
 37.8760	  78.0833	   0.0000	
 41.7371	  79.5022	   0.0000	
 39.6787	  81.2423	   0.0000	
 46.9257	  78.8128	   0.0000	
 41.3629	  83.3492	   0.0000	
 49.0434	  76.7880	   0.0000	
 40.0406	  86.3978	   0.0000	
 48.9265	  82.4967	   0.0000	
 35.7614	  88.8031	   0.0000	
 36.7552	  59.3272	   0.0000	
 34.8989	  60.3108	   0.0000	
 36.5936	  63.8295	   0.0000	
 31.7785	  62.9223	   0.0000	
 34.0721	  67.1710	   0.0000	
 31.4393	  67.2926	   0.0000	
 33.1915	  71.1919	   0.0000	
 32.6770	  73.2204	   0.0000	
 34.0916	  76.0308	   0.0000	
 35.0730	  78.5303	   0.0000	
 36.3619	  80.2137	   0.0000	
 39.3872	  81.4304	   0.0000	
 38.8950	  84.1040	   0.0000	
 46.2272	  81.4594	   0.0000	
 39.5801	  85.9468	   0.0000	
 51.3353	  80.0706	   0.0000	
 35.9776	  88.1925	   0.0000	
 47.9135	  81.9749	   0.0000	
 44.7288	  80.3385	   0.0000	
 33.6945	  59.0801	   0.0000	
 31.6495	  60.6554	   0.0000	
 32.9015	  65.0122	   0.0000	
 29.7248	  64.6985	   0.0000	
 32.0077	  67.6191	   0.0000	
 28.6260	  69.3032	   0.0000	
 30.5033	  72.7864	   0.0000	
 30.2997	  74.6870	   0.0000	
 31.8174	  76.9164	   0.0000	
 32.5474	  79.0784	   0.0000	
 35.2743	  82.2442	   0.0000	
 37.3605	  83.1255	   0.0000	
 37.8476	  84.9156	   0.0000	
 45.8581	  82.0868	   0.0000	
 39.1608	  85.4349	   0.0000	
 49.8761	  79.3146	   0.0000	
 40.5250	  86.8163	   0.0000	
 45.5456	  78.2656	   0.0000	
 50.7081	  74.9895	   0.0000	
 29.3234	  56.8249	   0.0000	
 28.5258	  61.8841	   0.0000	
 28.8644	  64.0286	   0.0000	
 29.8914	  65.4834	   0.0000	
 26.3450	  67.7563	   0.0000	
 26.7390	  69.2580	   0.0000	
 27.6107	  72.3403	   0.0000	
 28.4965	  74.9578	   0.0000	
 28.5291	  78.4360	   0.0000	
 30.1934	  81.2262	   0.0000	
 30.9455	  83.1470	   0.0000	
 35.7688	  85.5071	   0.0000	
 36.5441	  85.9528	   0.0000	
 42.2338	  85.5295	   0.0000	
 41.2076	  90.9699	   0.0000	
 46.9694	  85.7401	   0.0000	
 43.0059	  89.4528	   0.0000	
 49.2836	  83.0238	   0.0000	
 51.3888	  75.0743	   0.0000	
 25.6619	  57.4257	   0.0000	
 25.1859	  63.3832	   0.0000	
 23.0010	  67.0841	   0.0000	
 25.7701	  72.3523	   0.0000	
 24.8212	  74.0958	   0.0000	
 24.8318	  74.3511	   0.0000	
 24.4100	  75.6722	   0.0000	
 23.3825	  79.3640	   0.0000	
 26.2207	  81.4189	   0.0000	
 24.7928	  85.0633	   0.0000	
 27.9518	  88.5955	   0.0000	
 32.0519	  91.2449	   0.0000	
 37.2035	  92.7326	   0.0000	
 38.2072	  90.8768	   0.0000	
 34.4937	  97.8704	   0.0000	
 47.3767	  92.5330	   0.0000	
 49.6655	  88.9892	   0.0000	
 45.2112	  87.0898	   0.0000	
 57.4899	  76.2299	   0.0000	
 15.3421	  57.0406	   0.0000	
 15.1589	  64.4566	   0.0000	
 21.5764	  67.1282	   0.0000	
 19.7147	  69.9878	   0.0000	
 24.6843	  73.0954	   0.0000	
 23.9951	  72.1559	   0.0000	
 17.5913	  74.0113	   0.0000	
 22.2345	  75.1159	   0.0000	
 20.4129	  77.9989	   0.0000	
 22.3083	  79.0057	   0.0000	
 22.0291	  81.0409	   0.0000	
 26.4053	  84.7027	   0.0000	
 27.8323	  89.7906	   0.0000	
 41.1959	  92.8328	   0.0000	
 22.8360	 102.3935	   0.0000	
 37.8960	 107.5389	   0.0000	
 55.0919	  99.9195	   0.0000	
 56.3078	  96.0664	   0.0000	
 58.3415	  86.0948	   0.0000	
 11.6749	  55.6415	   0.0000	
 10.2427	  68.4318	   0.0000	
 14.1890	  76.4856	   0.0000	
 27.3210	  80.5515	   0.0000	
 27.4611	  80.1559	   0.0000	
 15.1865	  77.0046	   0.0000	
 20.3772	  78.9796	   0.0000	
 13.7829	  83.3620	   0.0000	
 18.8812	  86.8649	   0.0000	
  8.9211	  93.0841	   0.0000	
 20.2101	  99.4064	   0.0000	
 12.5724	 102.9039	   0.0000	
 14.8463	 111.8728	   0.0000	
 14.5868	 123.9139	   0.0000	
 35.3689	 126.5964	   0.0000	
  8.5869	 131.8184	   0.0000	
 28.1720	 127.0510	   0.0000	
 72.9644	 104.0913	   0.0000	
 74.2963	  81.0353	   0.0000	
 -0.1189	  50.3092	   0.0000	
 10.5954	  60.6127	   0.0000	
 16.9560	  65.5056	   0.0000	
 24.2487	  74.8470	   0.0000	
  8.3746	  78.4801	   0.0000	
  1.4907	  84.9770	   0.0000	
  4.1077	  87.6414	   0.0000	
  4.6439	  91.8125	   0.0000	
  4.9750	  95.5883	   0.0000	
 -1.0763	  97.7683	   0.0000	
  5.0664	  99.4020	   0.0000	
  4.9886	 104.5230	   0.0000	
 -2.2393	 105.8376	   0.0000	
  8.8658	 109.2938	   0.0000	
-17.5032	 106.1214	   0.0000	
 20.0015	 113.7601	   0.0000	
 15.1635	 118.2633	   0.0000	
 20.1332	 122.1444	   0.0000	
 61.4584	 106.6009	   0.0000	
 -0.0000	  -0.0000	   0.0000	
  0.0000	   0.0000	   0.0000	
 -0.0000	   0.0000	   0.0000	
 -0.0000	   0.0000	   0.0000	
  0.0000	  -0.0000	   0.0000	
 -0.0000	   0.0000	   0.0000	
  0.0000	   0.0000	   0.0000	
  0.0000	  -0.0000	   0.0000	
 -0.0000	  -0.0000	   0.0000	
  0.0000	   0.0000	   0.0000	
  0.0000	   0.0000	   0.0000	
  0.0000	  -0.0000	   0.0000	
 -0.0000	  -0.0000	   0.0000	
 -0.0000	   0.0000	   0.0000	
 -0.0000	  -0.0000	   0.0000	
 -0.0000	  -0.0000	   0.0000	
  0.0000	  -0.0000	   0.0000	
 -0.0000	  -0.0000	   0.0000	
  0.0000	   0.0000	   0.0000	
 50.0000	  50.0000	   0.0000	
 50.0000	  -0.0000	   0.0000	
 75.7644	  48.1124	   0.0000	
 48.7483	  17.7111	   0.0000	
 34.8049	  60.7199	   0.0000	
 58.1149	  37.2496	   0.0000	
 83.3420	  43.4289	   0.0000	
 76.0878	  59.3105	   0.0000	
 64.2239	  60.2623	   0.0000	
 73.3665	  72.9701	   0.0000	
 35.3899	  73.7349	   0.0000	
 56.7806	  77.6852	   0.0000	
 52.8188	  63.7408	   0.0000	
 70.5537	  95.8315	   0.0000	
 45.8003	  67.7838	   0.0000	
 59.2354	  87.6110	   0.0000	
 50.7356	  59.8184	   0.0000	
 54.3769	  83.1414	   0.0000	
 44.6713	  63.3541	   0.0000	
 55.7823	  81.9266	   0.0000	
 45.8146	  59.4531	   0.0000	
 51.5223	  77.6421	   0.0000	
 43.0424	  59.7875	   0.0000	
 50.7159	  75.9309	   0.0000	
 38.8101	  60.3073	   0.0000	
 57.4538	  77.2316	   0.0000	
 39.3236	  57.5536	   0.0000	
 44.8669	  69.5398	   0.0000	
 33.9526	  56.2712	   0.0000	
 51.1308	  69.7128	   0.0000	
 30.4623	  54.5133	   0.0000	
 54.6921	  69.0143	   0.0000	
 22.3861	  53.2427	   0.0000	
 60.2680	  67.1675	   0.0000	
 16.3675	  48.5983	   0.0000	
 70.5268	  65.7836	   0.0000	
 -0.9634	  42.8755	   0.0000	
 81.3162	  59.7214	   0.0000	
-20.0868	  36.9861	   0.0000	
130.5677	  72.4815	   0.0000	
 -0.0000	   0.0000	   0.0000	
 -0.0000	  -0.0000	   0.0000	
 53.2291	  50.0000	   0.0000	
 93.8019	 168.9260	   0.0000	
 42.3998	  50.2145	   0.0000	
 55.5046	 149.4479	   0.0000	
 43.4350	  51.0590	   0.0000	
 30.7568	 130.8321	   0.0000	
 36.4920	  50.8229	   0.0000	
 22.8509	 119.2594	   0.0000	
 42.7572	  49.7401	   0.0000	
 19.0947	 111.4454	   0.0000	
 45.4061	  48.5863	   0.0000	
 19.0257	 106.7555	   0.0000	
 43.1879	  49.0491	   0.0000	
 20.7128	 102.2322	   0.0000	
 42.1853	  49.9582	   0.0000	
 22.6124	  98.5410	   0.0000	
 42.3305	  49.3122	   0.0000	
 21.7689	  93.3156	   0.0000	
 41.8897	  48.5829	   0.0000	
 21.5006	  87.8642	   0.0000	
 38.5374	  48.8739	   0.0000	
 33.8701	  87.9622	   0.0000	
 44.6439	  45.6482	   0.0000	
 24.3871	  79.9961	   0.0000	
 39.5526	  46.2838	   0.0000	
 31.2352	  78.0506	   0.0000	
 40.5918	  43.6845	   0.0000	
 31.9897	  73.2655	   0.0000	
 40.7245	  39.4536	   0.0000	
 33.7884	  67.8644	   0.0000	
 42.7137	  34.6764	   0.0000	
 36.6048	  60.1231	   0.0000	
 41.2185	  30.0230	   0.0000	
 37.4696	  50.2386	   0.0000	
 22.1343	  26.5150	   0.0000	
 68.8045	  45.0729	   0.0000	
 49.0418	   4.5653	   0.0000	
 53.9946	  19.3176	   0.0000	
 37.8101	  -1.1811	   0.0000	
 -3.7076	  -2.7395	   0.0000	
 -0.0000	   0.0000	   0.0000	
 -0.0000	  -0.0000	   0.0000	
 45.1455	  50.0000	   0.0000	
-49.0400	  62.1752	   0.0000	
 52.0220	  49.5070	   0.0000	
-14.0499	  64.2225	   0.0000	
 42.6396	  50.2025	   0.0000	
 -1.8393	  64.4417	   0.0000	
 41.1200	  51.6041	   0.0000	
  4.6676	  64.2464	   0.0000	
 43.4125	  51.5066	   0.0000	
  6.1099	  63.2191	   0.0000	
 42.4283	  51.9331	   0.0000	
  7.8198	  62.3316	   0.0000	
 44.1583	  52.2241	   0.0000	
  7.9240	  61.5510	   0.0000	
 45.2681	  52.3469	   0.0000	
  9.0013	  60.3242	   0.0000	
 43.3757	  53.1363	   0.0000	
 13.1626	  59.2172	   0.0000	
 42.2513	  54.5791	   0.0000	
 17.5547	  59.1904	   0.0000	
 43.7168	  54.8777	   0.0000	
 14.5894	  57.7743	   0.0000	
 46.2791	  55.5936	   0.0000	
 15.3882	  56.1449	   0.0000	
 51.7644	  56.2741	   0.0000	
 16.1433	  54.5839	   0.0000	
 49.4935	  58.6400	   0.0000	
 10.9240	  52.6772	   0.0000	
 53.6625	  60.5014	   0.0000	
 10.3934	  51.9055	   0.0000	
 63.3342	  61.8369	   0.0000	
  0.2429	  48.6082	   0.0000	
 62.9235	  63.1711	   0.0000	
 10.3007	  45.6167	   0.0000	
 79.5669	  67.5401	   0.0000	
 13.2230	  43.8251	   0.0000	
 79.9406	  71.3564	   0.0000	
 -2.1295	  47.2067	   0.0000	
 52.8788	  73.8311	   0.0000	
  0.1391	  53.7140	   0.0000	
 17.5568	  74.3936	   0.0000	
 13.2082	  57.9606	   0.0000	
 43.8762	  50.0000	   0.0000	
  8.4656	  52.1850	   0.0000	
 37.9745	  49.5470	   0.0000	
 -2.7110	  56.9418	   0.0000	
 38.3540	  50.5429	   0.0000	
  7.4516	  57.0352	   0.0000	
 39.5610	  50.2528	   0.0000	
  5.5548	  57.4802	   0.0000	
 38.3819	  50.3388	   0.0000	
  6.7509	  58.0222	   0.0000	
 39.9869	  50.9400	   0.0000	
  8.0053	  58.2559	   0.0000	
 39.1465	  50.9137	   0.0000	
 11.4647	  57.4351	   0.0000	
 38.5245	  51.4991	   0.0000	
  9.3374	  59.4287	   0.0000	
 39.7064	  52.1449	   0.0000	
 13.1162	  58.8789	   0.0000	
 34.7445	  51.4854	   0.0000	
 15.2866	  58.4600	   0.0000	
 40.9811	  52.2735	   0.0000	
 14.0639	  58.5501	   0.0000	
 37.9339	  52.3504	   0.0000	
 15.8539	  58.0185	   0.0000	
 34.9442	  53.2195	   0.0000	
 15.1773	  59.4061	   0.0000	
 40.5094	  55.0563	   0.0000	
 16.3574	  59.9637	   0.0000	
 36.3927	  55.3510	   0.0000	
 18.1415	  59.6967	   0.0000	
 37.5741	  58.3344	   0.0000	
 13.7090	  63.2561	   0.0000	
 36.4128	  62.1096	   0.0000	
 12.9023	  66.0493	   0.0000	
 33.4488	  67.4260	   0.0000	
 14.0185	  69.0113	   0.0000	
 34.2853	  75.0914	   0.0000	
 26.8958	  66.0247	   0.0000	
 33.1463	  86.4543	   0.0000	
 20.9039	  73.4847	   0.0000	
 16.3452	  87.0436	   0.0000	
 20.5157	  73.9182	   0.0000	
 40.0613	  50.0000	   0.0000	
  0.1088	  45.9070	   0.0000	
 42.0877	  50.5144	   0.0000	
  1.9063	  45.7226	   0.0000	
 41.5686	  50.7913	   0.0000	
  3.7601	  45.1786	   0.0000	
 40.7170	  50.5542	   0.0000	
  7.5938	  44.6556	   0.0000	
 40.5516	  50.0949	   0.0000	
  9.5786	  43.6707	   0.0000	
 40.3580	  49.6382	   0.0000	
  2.5491	  48.0393	   0.0000	
 39.3221	  49.4219	   0.0000	
  9.3944	  45.0933	   0.0000	
 39.3593	  49.6435	   0.0000	
  6.0113	  48.1339	   0.0000	
 38.8633	  49.5889	   0.0000	
  8.8652	  47.5452	   0.0000	
 38.5017	  49.6173	   0.0000	
 10.8199	  47.1642	   0.0000	
 37.4694	  49.5708	   0.0000	
 11.0259	  48.0742	   0.0000	
 39.2101	  50.5261	   0.0000	
 10.3278	  48.6279	   0.0000	
 38.1058	  50.8821	   0.0000	
 12.1157	  48.6292	   0.0000	
 36.6327	  50.2327	   0.0000	
 14.2076	  48.1964	   0.0000	
 37.6190	  51.0045	   0.0000	
 13.5189	  49.1910	   0.0000	
 37.1580	  52.0604	   0.0000	
 14.8270	  49.3603	   0.0000	
 35.9620	  51.7949	   0.0000	
 16.5673	  48.9523	   0.0000	
 35.2831	  52.5731	   0.0000	
 16.0770	  51.2263	   0.0000	
 31.2668	  51.1780	   0.0000	
 22.1868	  51.0484	   0.0000	
 31.9897	  52.2529	   0.0000	
 16.8067	  55.4753	   0.0000	
 21.2818	  51.1002	   0.0000	
 26.4965	  51.9658	   0.0000	
 47.8859	  50.0000	   0.0000	
 -0.1884	  28.1257	   0.0000	
 45.6989	  49.2185	   0.0000	
  1.0837	  29.5357	   0.0000	
 43.6322	  48.4772	   0.0000	
  1.3578	  30.9836	   0.0000	
 43.6459	  48.1826	   0.0000	
  3.2116	  32.3986	   0.0000	
 45.8254	  48.8072	   0.0000	
  4.4990	  33.4357	   0.0000	
 45.3148	  47.9617	   0.0000	
  6.4515	  34.8469	   0.0000	
 40.1835	  44.9055	   0.0000	
  7.6074	  36.2922	   0.0000	
 40.9546	  46.2219	   0.0000	
  6.4401	  37.9621	   0.0000	
 40.0186	  46.2806	   0.0000	
 10.0149	  36.9117	   0.0000	
 39.0351	  47.1120	   0.0000	
 10.9530	  39.4871	   0.0000	
 38.0432	  46.6712	   0.0000	
 12.6283	  40.5674	   0.0000	
 37.3205	  47.1559	   0.0000	
 13.9538	  41.8699	   0.0000	
 35.4322	  47.1351	   0.0000	
 15.9613	  43.4917	   0.0000	
 35.6165	  48.7466	   0.0000	
 15.4826	  46.2332	   0.0000	
 33.5766	  48.8210	   0.0000	
 18.2197	  47.0301	   0.0000	
 32.2574	  50.2529	   0.0000	
 19.8722	  49.1311	   0.0000	
 31.8100	  51.0602	   0.0000	
 20.6987	  50.0949	   0.0000	
 29.5432	  51.8590	   0.0000	
 21.9818	  51.7901	   0.0000	
 27.5332	  53.4161	   0.0000	
 23.4558	  53.4716	   0.0000	
 26.9251	  55.4111	   0.0000	
 25.9366	  53.0047	   0.0000	
 25.5223	  55.0228	   0.0000	
 24.4170	  54.6556	   0.0000	
  0.0000	   0.0000	   0.0000	
  0.0000	   0.0000	   0.0000	
 -0.0000	   0.0000	   0.0000	
  0.0000	  -0.0000	   0.0000	
 -0.0000	   0.0000	   0.0000	
  0.0000	   0.0000	   0.0000	
 -0.0000	   0.0000	   0.0000	
 -0.0000	  -0.0000	   0.0000	
 -0.0000	  -0.0000	   0.0000	
 -0.0000	   0.0000	   0.0000	
 -0.0000	  -0.0000	   0.0000	
 -0.0000	  -0.0000	   0.0000	
 -0.0000	   0.0000	   0.0000	
 -0.0000	  -0.0000	   0.0000	