# vtk DataFile Version 3.0 
Results 
ASCII 
DATASET UNSTRUCTURED_GRID 
POINTS 	    1451 float 
  0.0000	   0.6000	  0.0000	 
  0.0000	   1.2000	  0.0000	 
  0.0000	   1.8000	  0.0000	 
  0.0000	   2.4000	  0.0000	 
  0.0000	   3.0000	  0.0000	 
  0.0000	   3.6000	  0.0000	 
  0.0000	   4.2000	  0.0000	 
  0.0000	   4.8000	  0.0000	 
  0.0000	   5.4000	  0.0000	 
  0.0000	   6.0000	  0.0000	 
  0.0000	   6.6000	  0.0000	 
  0.0000	   7.2000	  0.0000	 
  0.0000	   7.8000	  0.0000	 
  0.0000	   8.4000	  0.0000	 
  0.0000	   9.0000	  0.0000	 
  0.0000	   9.6000	  0.0000	 
  0.0000	  10.2000	  0.0000	 
  0.0000	  10.8000	  0.0000	 
  0.0000	  11.4000	  0.0000	 
  0.2250	   0.8475	  0.0000	 
  0.2250	   1.4200	  0.0000	 
  0.2250	   1.9925	  0.0000	 
  0.2250	   2.5650	  0.0000	 
  0.2250	   3.1375	  0.0000	 
  0.2250	   3.7100	  0.0000	 
  0.2250	   4.2825	  0.0000	 
  0.2250	   4.8550	  0.0000	 
  0.2250	   5.4275	  0.0000	 
  0.2250	   6.0000	  0.0000	 
  0.2250	   6.5725	  0.0000	 
  0.2250	   7.1450	  0.0000	 
  0.2250	   7.7175	  0.0000	 
  0.2250	   8.2900	  0.0000	 
  0.2250	   8.8625	  0.0000	 
  0.2250	   9.4350	  0.0000	 
  0.2250	  10.0075	  0.0000	 
  0.2250	  10.5800	  0.0000	 
  0.2250	  11.1525	  0.0000	 
  0.4500	   1.0950	  0.0000	 
  0.4500	   1.6400	  0.0000	 
  0.4500	   2.1850	  0.0000	 
  0.4500	   2.7300	  0.0000	 
  0.4500	   3.2750	  0.0000	 
  0.4500	   3.8200	  0.0000	 
  0.4500	   4.3650	  0.0000	 
  0.4500	   4.9100	  0.0000	 
  0.4500	   5.4550	  0.0000	 
  0.4500	   6.0000	  0.0000	 
  0.4500	   6.5450	  0.0000	 
  0.4500	   7.0900	  0.0000	 
  0.4500	   7.6350	  0.0000	 
  0.4500	   8.1800	  0.0000	 
  0.4500	   8.7250	  0.0000	 
  0.4500	   9.2700	  0.0000	 
  0.4500	   9.8150	  0.0000	 
  0.4500	  10.3600	  0.0000	 
  0.4500	  10.9050	  0.0000	 
  0.6750	   1.3425	  0.0000	 
  0.6750	   1.8600	  0.0000	 
  0.6750	   2.3775	  0.0000	 
  0.6750	   2.8950	  0.0000	 
  0.6750	   3.4125	  0.0000	 
  0.6750	   3.9300	  0.0000	 
  0.6750	   4.4475	  0.0000	 
  0.6750	   4.9650	  0.0000	 
  0.6750	   5.4825	  0.0000	 
  0.6750	   6.0000	  0.0000	 
  0.6750	   6.5175	  0.0000	 
  0.6750	   7.0350	  0.0000	 
  0.6750	   7.5525	  0.0000	 
  0.6750	   8.0700	  0.0000	 
  0.6750	   8.5875	  0.0000	 
  0.6750	   9.1050	  0.0000	 
  0.6750	   9.6225	  0.0000	 
  0.6750	  10.1400	  0.0000	 
  0.6750	  10.6575	  0.0000	 
  0.9000	   1.5900	  0.0000	 
  0.9000	   2.0800	  0.0000	 
  0.9000	   2.5700	  0.0000	 
  0.9000	   3.0600	  0.0000	 
  0.9000	   3.5500	  0.0000	 
  0.9000	   4.0400	  0.0000	 
  0.9000	   4.5300	  0.0000	 
  0.9000	   5.0200	  0.0000	 
  0.9000	   5.5100	  0.0000	 
  0.9000	   6.0000	  0.0000	 
  0.9000	   6.4900	  0.0000	 
  0.9000	   6.9800	  0.0000	 
  0.9000	   7.4700	  0.0000	 
  0.9000	   7.9600	  0.0000	 
  0.9000	   8.4500	  0.0000	 
  0.9000	   8.9400	  0.0000	 
  0.9000	   9.4300	  0.0000	 
  0.9000	   9.9200	  0.0000	 
  0.9000	  10.4100	  0.0000	 
  1.1250	   1.8375	  0.0000	 
  1.1250	   2.3000	  0.0000	 
  1.1250	   2.7625	  0.0000	 
  1.1250	   3.2250	  0.0000	 
  1.1250	   3.6875	  0.0000	 
  1.1250	   4.1500	  0.0000	 
  1.1250	   4.6125	  0.0000	 
  1.1250	   5.0750	  0.0000	 
  1.1250	   5.5375	  0.0000	 
  1.1250	   6.0000	  0.0000	 
  1.1250	   6.4625	  0.0000	 
  1.1250	   6.9250	  0.0000	 
  1.1250	   7.3875	  0.0000	 
  1.1250	   7.8500	  0.0000	 
  1.1250	   8.3125	  0.0000	 
  1.1250	   8.7750	  0.0000	 
  1.1250	   9.2375	  0.0000	 
  1.1250	   9.7000	  0.0000	 
  1.1250	  10.1625	  0.0000	 
  1.3500	   2.0850	  0.0000	 
  1.3500	   2.5200	  0.0000	 
  1.3500	   2.9550	  0.0000	 
  1.3500	   3.3900	  0.0000	 
  1.3500	   3.8250	  0.0000	 
  1.3500	   4.2600	  0.0000	 
  1.3500	   4.6950	  0.0000	 
  1.3500	   5.1300	  0.0000	 
  1.3500	   5.5650	  0.0000	 
  1.3500	   6.0000	  0.0000	 
  1.3500	   6.4350	  0.0000	 
  1.3500	   6.8700	  0.0000	 
  1.3500	   7.3050	  0.0000	 
  1.3500	   7.7400	  0.0000	 
  1.3500	   8.1750	  0.0000	 
  1.3500	   8.6100	  0.0000	 
  1.3500	   9.0450	  0.0000	 
  1.3500	   9.4800	  0.0000	 
  1.3500	   9.9150	  0.0000	 
  1.5750	   2.3325	  0.0000	 
  1.5750	   2.7400	  0.0000	 
  1.5750	   3.1475	  0.0000	 
  1.5750	   3.5550	  0.0000	 
  1.5750	   3.9625	  0.0000	 
  1.5750	   4.3700	  0.0000	 
  1.5750	   4.7775	  0.0000	 
  1.5750	   5.1850	  0.0000	 
  1.5750	   5.5925	  0.0000	 
  1.5750	   6.0000	  0.0000	 
  1.5750	   6.4075	  0.0000	 
  1.5750	   6.8150	  0.0000	 
  1.5750	   7.2225	  0.0000	 
  1.5750	   7.6300	  0.0000	 
  1.5750	   8.0375	  0.0000	 
  1.5750	   8.4450	  0.0000	 
  1.5750	   8.8525	  0.0000	 
  1.5750	   9.2600	  0.0000	 
  1.5750	   9.6675	  0.0000	 
  1.8000	   2.5800	  0.0000	 
  1.8000	   2.9600	  0.0000	 
  1.8000	   3.3400	  0.0000	 
  1.8000	   3.7200	  0.0000	 
  1.8000	   4.1000	  0.0000	 
  1.8000	   4.4800	  0.0000	 
  1.8000	   4.8600	  0.0000	 
  1.8000	   5.2400	  0.0000	 
  1.8000	   5.6200	  0.0000	 
  1.8000	   6.0000	  0.0000	 
  1.8000	   6.3800	  0.0000	 
  1.8000	   6.7600	  0.0000	 
  1.8000	   7.1400	  0.0000	 
  1.8000	   7.5200	  0.0000	 
  1.8000	   7.9000	  0.0000	 
  1.8000	   8.2800	  0.0000	 
  1.8000	   8.6600	  0.0000	 
  1.8000	   9.0400	  0.0000	 
  1.8000	   9.4200	  0.0000	 
  2.0250	   2.8275	  0.0000	 
  2.0250	   3.1800	  0.0000	 
  2.0250	   3.5325	  0.0000	 
  2.0250	   3.8850	  0.0000	 
  2.0250	   4.2375	  0.0000	 
  2.0250	   4.5900	  0.0000	 
  2.0250	   4.9425	  0.0000	 
  2.0250	   5.2950	  0.0000	 
  2.0250	   5.6475	  0.0000	 
  2.0250	   6.0000	  0.0000	 
  2.0250	   6.3525	  0.0000	 
  2.0250	   6.7050	  0.0000	 
  2.0250	   7.0575	  0.0000	 
  2.0250	   7.4100	  0.0000	 
  2.0250	   7.7625	  0.0000	 
  2.0250	   8.1150	  0.0000	 
  2.0250	   8.4675	  0.0000	 
  2.0250	   8.8200	  0.0000	 
  2.0250	   9.1725	  0.0000	 
  2.2500	   3.0750	  0.0000	 
  2.2500	   3.4000	  0.0000	 
  2.2500	   3.7250	  0.0000	 
  2.2500	   4.0500	  0.0000	 
  2.2500	   4.3750	  0.0000	 
  2.2500	   4.7000	  0.0000	 
  2.2500	   5.0250	  0.0000	 
  2.2500	   5.3500	  0.0000	 
  2.2500	   5.6750	  0.0000	 
  2.2500	   6.0000	  0.0000	 
  2.2500	   6.3250	  0.0000	 
  2.2500	   6.6500	  0.0000	 
  2.2500	   6.9750	  0.0000	 
  2.2500	   7.3000	  0.0000	 
  2.2500	   7.6250	  0.0000	 
  2.2500	   7.9500	  0.0000	 
  2.2500	   8.2750	  0.0000	 
  2.2500	   8.6000	  0.0000	 
  2.2500	   8.9250	  0.0000	 
  2.4750	   3.3225	  0.0000	 
  2.4750	   3.6200	  0.0000	 
  2.4750	   3.9175	  0.0000	 
  2.4750	   4.2150	  0.0000	 
  2.4750	   4.5125	  0.0000	 
  2.4750	   4.8100	  0.0000	 
  2.4750	   5.1075	  0.0000	 
  2.4750	   5.4050	  0.0000	 
  2.4750	   5.7025	  0.0000	 
  2.4750	   6.0000	  0.0000	 
  2.4750	   6.2975	  0.0000	 
  2.4750	   6.5950	  0.0000	 
  2.4750	   6.8925	  0.0000	 
  2.4750	   7.1900	  0.0000	 
  2.4750	   7.4875	  0.0000	 
  2.4750	   7.7850	  0.0000	 
  2.4750	   8.0825	  0.0000	 
  2.4750	   8.3800	  0.0000	 
  2.4750	   8.6775	  0.0000	 
  2.7000	   3.5700	  0.0000	 
  2.7000	   3.8400	  0.0000	 
  2.7000	   4.1100	  0.0000	 
  2.7000	   4.3800	  0.0000	 
  2.7000	   4.6500	  0.0000	 
  2.7000	   4.9200	  0.0000	 
  2.7000	   5.1900	  0.0000	 
  2.7000	   5.4600	  0.0000	 
  2.7000	   5.7300	  0.0000	 
  2.7000	   6.0000	  0.0000	 
  2.7000	   6.2700	  0.0000	 
  2.7000	   6.5400	  0.0000	 
  2.7000	   6.8100	  0.0000	 
  2.7000	   7.0800	  0.0000	 
  2.7000	   7.3500	  0.0000	 
  2.7000	   7.6200	  0.0000	 
  2.7000	   7.8900	  0.0000	 
  2.7000	   8.1600	  0.0000	 
  2.7000	   8.4300	  0.0000	 
  2.9250	   3.8175	  0.0000	 
  2.9250	   4.0600	  0.0000	 
  2.9250	   4.3025	  0.0000	 
  2.9250	   4.5450	  0.0000	 
  2.9250	   4.7875	  0.0000	 
  2.9250	   5.0300	  0.0000	 
  2.9250	   5.2725	  0.0000	 
  2.9250	   5.5150	  0.0000	 
  2.9250	   5.7575	  0.0000	 
  2.9250	   6.0000	  0.0000	 
  2.9250	   6.2425	  0.0000	 
  2.9250	   6.4850	  0.0000	 
  2.9250	   6.7275	  0.0000	 
  2.9250	   6.9700	  0.0000	 
  2.9250	   7.2125	  0.0000	 
  2.9250	   7.4550	  0.0000	 
  2.9250	   7.6975	  0.0000	 
  2.9250	   7.9400	  0.0000	 
  2.9250	   8.1825	  0.0000	 
  3.1500	   4.0650	  0.0000	 
  3.1500	   4.2800	  0.0000	 
  3.1500	   4.4950	  0.0000	 
  3.1500	   4.7100	  0.0000	 
  3.1500	   4.9250	  0.0000	 
  3.1500	   5.1400	  0.0000	 
  3.1500	   5.3550	  0.0000	 
  3.1500	   5.5700	  0.0000	 
  3.1500	   5.7850	  0.0000	 
  3.1500	   6.0000	  0.0000	 
  3.1500	   6.2150	  0.0000	 
  3.1500	   6.4300	  0.0000	 
  3.1500	   6.6450	  0.0000	 
  3.1500	   6.8600	  0.0000	 
  3.1500	   7.0750	  0.0000	 
  3.1500	   7.2900	  0.0000	 
  3.1500	   7.5050	  0.0000	 
  3.1500	   7.7200	  0.0000	 
  3.1500	   7.9350	  0.0000	 
  3.3750	   4.3125	  0.0000	 
  3.3750	   4.5000	  0.0000	 
  3.3750	   4.6875	  0.0000	 
  3.3750	   4.8750	  0.0000	 
  3.3750	   5.0625	  0.0000	 
  3.3750	   5.2500	  0.0000	 
  3.3750	   5.4375	  0.0000	 
  3.3750	   5.6250	  0.0000	 
  3.3750	   5.8125	  0.0000	 
  3.3750	   6.0000	  0.0000	 
  3.3750	   6.1875	  0.0000	 
  3.3750	   6.3750	  0.0000	 
  3.3750	   6.5625	  0.0000	 
  3.3750	   6.7500	  0.0000	 
  3.3750	   6.9375	  0.0000	 
  3.3750	   7.1250	  0.0000	 
  3.3750	   7.3125	  0.0000	 
  3.3750	   7.5000	  0.0000	 
  3.3750	   7.6875	  0.0000	 
  3.6000	   4.5600	  0.0000	 
  3.6000	   4.7200	  0.0000	 
  3.6000	   4.8800	  0.0000	 
  3.6000	   5.0400	  0.0000	 
  3.6000	   5.2000	  0.0000	 
  3.6000	   5.3600	  0.0000	 
  3.6000	   5.5200	  0.0000	 
  3.6000	   5.6800	  0.0000	 
  3.6000	   5.8400	  0.0000	 
  3.6000	   6.0000	  0.0000	 
  3.6000	   6.1600	  0.0000	 
  3.6000	   6.3200	  0.0000	 
  3.6000	   6.4800	  0.0000	 
  3.6000	   6.6400	  0.0000	 
  3.6000	   6.8000	  0.0000	 
  3.6000	   6.9600	  0.0000	 
  3.6000	   7.1200	  0.0000	 
  3.6000	   7.2800	  0.0000	 
  3.6000	   7.4400	  0.0000	 
  3.8250	   4.8075	  0.0000	 
  3.8250	   4.9400	  0.0000	 
  3.8250	   5.0725	  0.0000	 
  3.8250	   5.2050	  0.0000	 
  3.8250	   5.3375	  0.0000	 
  3.8250	   5.4700	  0.0000	 
  3.8250	   5.6025	  0.0000	 
[...]
POINT_DATA 	    1451 
VECTORS U float 
 50.0000	   0.0000	   0.0000	
 50.0000	   0.0000	   0.0000	
 50.0000	   0.0000	   0.0000	
 50.0000	   0.0000	   0.0000	
 50.0000	  -0.0000	   0.0000	
 50.0000	  -0.0000	   0.0000	
 50.0000	   0.0000	   0.0000	
 50.0000	  -0.0000	   0.0000	
 50.0000	  -0.0000	   0.0000	
 50.0000	   0.0000	   0.0000	
 50.0000	  -0.0000	   0.0000	
 50.0000	  -0.0000	   0.0000	
 50.0000	   0.0000	   0.0000	
 50.0000	   0.0000	   0.0000	
 50.0000	  -0.0000	   0.0000	
 50.0000	  -0.0000	   0.0000	
 50.0000	   0.0000	   0.0000	
 50.0000	   0.0000	   0.0000	
 50.0000	  -0.0000	   0.0000	
 49.1368	   5.9954	   0.0000	
 50.2996	   7.0797	   0.0000	
 50.2045	  11.2261	   0.0000	
 49.8288	  18.5406	   0.0000	
 50.0184	  10.6930	   0.0000	
 49.6627	  20.3936	   0.0000	
 49.2922	  24.7379	   0.0000	
 49.1576	  30.7987	   0.0000	
 49.7631	  34.2584	   0.0000	
 50.0539	  35.7579	   0.0000	
 49.7033	  35.3861	   0.0000	
 50.8380	  34.5772	   0.0000	
 50.4137	  29.3668	   0.0000	
 50.4115	  26.1677	   0.0000	
 50.2660	  24.3843	   0.0000	
 49.9708	  16.4895	   0.0000	
 50.0937	  19.2860	   0.0000	
 49.2101	  16.7007	   0.0000	
 50.4979	  16.2325	   0.0000	
 49.5224	  11.7845	   0.0000	
 46.2203	  19.3818	   0.0000	
 44.3358	  32.7876	   0.0000	
 56.2360	  24.0492	   0.0000	
 42.9120	  35.0830	   0.0000	
 46.7916	  39.3288	   0.0000	
 45.3077	  50.7597	   0.0000	
 46.8149	  59.3160	   0.0000	
 48.4740	  63.4505	   0.0000	
 49.2310	  65.6747	   0.0000	
 50.3351	  66.6831	   0.0000	
 51.1503	  66.0243	   0.0000	
 54.5067	  61.3041	   0.0000	
 52.5633	  48.7478	   0.0000	
 50.5380	  47.3923	   0.0000	
 55.7949	  44.5207	   0.0000	
 47.7564	  33.7876	   0.0000	
 52.5588	  35.6034	   0.0000	
 50.8751	  34.3393	   0.0000	
 43.9296	  20.5583	   0.0000	
 39.4689	  43.5722	   0.0000	
 53.5061	  36.3578	   0.0000	
 46.7218	  48.3961	   0.0000	
 43.7779	  49.2505	   0.0000	
 41.1608	  60.2429	   0.0000	
 42.0546	  68.3646	   0.0000	
 45.3631	  71.2485	   0.0000	
 47.6426	  73.8409	   0.0000	
 47.6621	  76.6621	   0.0000	
 49.9507	  81.4467	   0.0000	
 51.0921	  81.4445	   0.0000	
 55.4864	  84.2186	   0.0000	
 59.7022	  79.4598	   0.0000	
 51.6891	  66.1092	   0.0000	
 54.0193	  64.7080	   0.0000	
 56.6100	  63.1486	   0.0000	
 49.6184	  52.2172	   0.0000	
 49.1439	  51.4615	   0.0000	
 25.0150	  46.0750	   0.0000	
 48.5477	  45.6187	   0.0000	
 47.8328	  56.2778	   0.0000	
 43.6438	  62.8043	   0.0000	
 38.9237	  61.7977	   0.0000	
 38.8543	  65.1077	   0.0000	
 41.3322	  66.2141	   0.0000	
 44.6515	  68.9751	   0.0000	
 46.6589	  70.6828	   0.0000	
 47.2633	  71.9037	   0.0000	
 47.5070	  72.0752	   0.0000	
 50.4613	  78.0906	   0.0000	
 53.2811	  78.2076	   0.0000	
 59.7907	  82.0135	   0.0000	
 59.5709	  82.4094	   0.0000	
 52.8947	  79.1764	   0.0000	
 57.8208	  81.6812	   0.0000	
 54.6915	  79.2515	   0.0000	
 54.3326	  66.9648	   0.0000	
 39.3649	  50.6792	   0.0000	
 43.9091	  64.5504	   0.0000	
 41.0331	  71.0979	   0.0000	
 45.6736	  71.3962	   0.0000	
 37.9155	  67.5685	   0.0000	
 39.2042	  66.1472	   0.0000	
 40.7037	  67.9998	   0.0000	
 44.2502	  68.9766	   0.0000	
 45.8548	  70.8596	   0.0000	
 46.3475	  72.6356	   0.0000	
 47.9284	  74.4212	   0.0000	
 47.2114	  73.0680	   0.0000	
 52.6217	  79.7682	   0.0000	
 57.0688	  78.6885	   0.0000	
 58.9822	  83.9733	   0.0000	
 52.4252	  90.9052	   0.0000	
 53.7252	  91.9409	   0.0000	
 57.7978	  96.6645	   0.0000	
 61.0093	  98.2468	   0.0000	
 35.9264	  69.3934	   0.0000	
 41.9962	  77.9625	   0.0000	
 43.1299	  73.5608	   0.0000	
 45.4663	  75.5733	   0.0000	
 39.0971	  69.2203	   0.0000	
 38.8766	  69.8632	   0.0000	
 41.1177	  69.5008	   0.0000	
 43.4662	  71.5567	   0.0000	
 45.2129	  73.4114	   0.0000	
 44.9559	  75.9433	   0.0000	
 46.8065	  78.9391	   0.0000	
 47.9954	  80.7615	   0.0000	
 48.0059	  79.5482	   0.0000	
 56.4399	  86.0437	   0.0000	
 56.0768	  86.2806	   0.0000	
 50.3918	  95.4898	   0.0000	
 51.5962	  99.2576	   0.0000	
 53.0522	 104.4347	   0.0000	
 52.3749	 115.0951	   0.0000	
 36.0770	  64.6907	   0.0000	
 45.1840	  66.9092	   0.0000	
 42.9627	  65.7099	   0.0000	
 45.6726	  67.7258	   0.0000	
 38.4452	  66.0018	   0.0000	
 39.7594	  65.0351	   0.0000	
 40.1707	  67.1619	   0.0000	
 42.6332	  69.8216	   0.0000	
 43.6604	  72.7510	   0.0000	
 44.3035	  74.1498	   0.0000	
 45.3677	  74.9563	   0.0000	
 46.6185	  77.7568	   0.0000	
 48.8511	  79.6085	   0.0000	
 50.9873	  76.6823	   0.0000	
 56.3298	  84.0562	   0.0000	
 48.9428	  85.9624	   0.0000	
 48.9208	  88.0123	   0.0000	
 49.7191	  91.6515	   0.0000	
 46.1160	 101.4005	   0.0000	
 40.4239	  59.7435	   0.0000	
 44.7568	  64.3688	   0.0000	
 42.5121	  63.6333	   0.0000	
 43.2309	  69.6542	   0.0000	
 39.3576	  65.7562	   0.0000	
 38.4890	  67.4923	   0.0000	
 39.1692	  69.6967	   0.0000	
 41.1472	  72.4170	   0.0000	
 42.8925	  74.2260	   0.0000	
 43.0415	  76.3239	   0.0000	
 45.0089	  78.4436	   0.0000	
 44.7963	  78.5461	   0.0000	
 47.2719	  81.7152	   0.0000	
 52.5755	  81.9020	   0.0000	
 50.6086	  79.3116	   0.0000	
 51.2138	  89.2534	   0.0000	
 48.5980	  85.7646	   0.0000	
 47.6980	  86.3208	   0.0000	
 42.6078	  94.6931	   0.0000	
 40.7184	  58.6808	   0.0000	
 43.4788	  63.3785	   0.0000	
 39.0870	  65.4273	   0.0000	
 43.8894	  67.6463	   0.0000	
 37.8201	  66.6778	   0.0000	
 37.5226	  68.2354	   0.0000	
 37.9024	  70.3166	   0.0000	
 40.3082	  72.3864	   0.0000	
 41.4573	  74.9647	   0.0000	
 41.5754	  77.3974	   0.0000	
 43.7937	  79.6298	   0.0000	
 44.8097	  81.2927	   0.0000	
 44.8078	  81.3257	   0.0000	
 50.9890	  82.9295	   0.0000	
 53.3865	  83.6760	   0.0000	
 44.8489	  83.9675	   0.0000	
 51.6942	  90.1079	   0.0000	
 49.0281	  87.0256	   0.0000	
 40.6517	  91.7655	   0.0000	
 39.5116	  59.2542	   0.0000	
 39.5694	  65.1970	   0.0000	
 40.4288	  63.7710	   0.0000	
 41.4322	  68.1666	   0.0000	
 36.4922	  67.5735	   0.0000	
 36.3450	  69.1124	   0.0000	
 36.9692	  70.9469	   0.0000	
 38.7089	  73.8246	   0.0000	
 39.9022	  76.4785	   0.0000	
 40.4171	  78.0560	   0.0000	
 42.5328	  79.2216	   0.0000	
 43.4146	  80.5806	   0.0000	
 44.9458	  82.1964	   0.0000	
 48.3911	  79.9563	   0.0000	
 51.8370	  82.1328	   0.0000	
 49.3276	  85.2789	   0.0000	
 43.0809	  83.5969	   0.0000	
 52.7212	  88.9772	   0.0000	
 44.4009	  90.2451	   0.0000	
 35.7718	  61.7543	   0.0000	
 41.6002	  63.4268	   0.0000	
 37.5480	  63.5886	   0.0000	
 39.3269	  68.0184	   0.0000	
 35.1129	  67.6001	   0.0000	
 35.1939	  69.4069	   0.0000	
 35.4973	  71.3764	   0.0000	
 37.0376	  73.7064	   0.0000	
 38.6550	  75.7301	   0.0000	
 38.5770	  78.2683	   0.0000	
 42.0725	  80.7749	   0.0000	
 42.2862	  80.9533	   0.0000	
 43.7611	  82.3563	   0.0000	
 49.1134	  81.5769	   0.0000	
 48.7114	  80.6650	   0.0000	
 48.5849	  85.6463	   0.0000	
 47.3642	  87.5069	   0.0000	
 42.6889	  86.4832	   0.0000	
 49.6935	  93.0897	   0.0000	
 39.8336	  60.8834	   0.0000	
 38.1322	  64.0279	   0.0000	
 35.2991	  65.3742	   0.0000	
 36.8395	  69.4821	   0.0000	
 33.7173	  69.7366	   0.0000	
 33.8624	  71.4317	   0.0000	
 34.1527	  73.2985	   0.0000	
 35.7978	  75.3656	   0.0000	
 36.5252	  78.2824	   0.0000	
 35.9629	  81.6297	   0.0000	
 39.8386	  84.6214	   0.0000	
 42.1789	  86.5303	   0.0000	
 42.5671	  86.2900	   0.0000	
 47.6829	  85.1658	   0.0000	
 49.5040	  86.2017	   0.0000	
 44.5121	  88.5112	   0.0000	
 45.6752	  93.4415	   0.0000	
 48.9466	  91.6243	   0.0000	
 38.3905	  91.2410	   0.0000	
 35.8702	  57.6026	   0.0000	
 33.5966	  59.9989	   0.0000	
 32.6500	  62.7528	   0.0000	
 34.0977	  68.0635	   0.0000	
 31.7699	  69.7715	   0.0000	
 32.5463	  71.9262	   0.0000	
 32.2718	  74.2172	   0.0000	
 33.2656	  77.8132	   0.0000	
 33.2509	  81.9879	   0.0000	
 36.5964	  81.3062	   0.0000	
 37.7728	  80.0811	   0.0000	
 39.8709	  82.0335	   0.0000	
 43.0671	  84.1929	   0.0000	
 46.8941	  81.9175	   0.0000	
 46.9373	  83.7883	   0.0000	
 45.6820	  87.8870	   0.0000	
 40.5242	  90.0351	   0.0000	
 50.0530	  86.5641	   0.0000	
 51.1439	  79.8263	   0.0000	
 31.1799	  60.2794	   0.0000	
 29.1279	  62.4272	   0.0000	
 28.2943	  66.0137	   0.0000	
 31.0597	  69.8378	   0.0000	
 29.4416	  71.1287	   0.0000	
 29.8979	  74.2299	   0.0000	
 29.3800	  76.9399	   0.0000	
 29.0410	  80.1648	   0.0000	
 34.4667	  79.6574	   0.0000	
 33.4725	  81.4713	   0.0000	
 39.6000	  85.0759	   0.0000	
 37.0113	  82.9339	   0.0000	
 40.4108	  84.7948	   0.0000	
 47.0238	  84.1222	   0.0000	
 43.2235	  87.0303	   0.0000	
 42.5978	  92.5796	   0.0000	
 42.4033	  95.7629	   0.0000	
 47.7138	  87.8041	   0.0000	
 57.1499	  79.0505	   0.0000	
 26.2349	  58.2215	   0.0000	
 22.6515	  64.2829	   0.0000	
 27.0234	  68.0981	   0.0000	
 28.4067	  72.0141	   0.0000	
 26.2782	  74.0586	   0.0000	
 27.2002	  76.5427	   0.0000	
 26.6907	  77.8834	   0.0000	
 32.4009	  75.4980	   0.0000	
 33.1093	  75.6323	   0.0000	
 26.3181	  81.7008	   0.0000	
 34.3789	  88.1286	   0.0000	
 39.6216	  91.9385	   0.0000	
 38.8386	  90.0567	   0.0000	
 41.9903	  91.2081	   0.0000	
 41.9179	  98.2091	   0.0000	
 36.1996	 103.8437	   0.0000	
 41.4416	 102.6087	   0.0000	
 55.4690	  91.4013	   0.0000	
 55.5104	  80.0853	   0.0000	
 19.7480	  54.1322	   0.0000	
 22.6364	  57.4357	   0.0000	
 12.6337	  67.1632	   0.0000	
 21.6033	  80.5339	   0.0000	
 23.4865	  85.7912	   0.0000	
 25.8236	  88.4204	   0.0000	
 32.5354	  86.8153	   0.0000	
 32.7707	  86.5597	   0.0000	
 23.5406	  93.4679	   0.0000	
 29.8237	  91.3922	   0.0000	
 25.9279	  88.5216	   0.0000	
 31.1414	  95.6047	   0.0000	
 42.0465	 100.5009	   0.0000	
 36.6530	  98.6859	   0.0000	
 32.4088	 105.8095	   0.0000	
 34.6302	 108.8752	   0.0000	
 50.2408	  97.5332	   0.0000	
 47.9819	  86.1663	   0.0000	
 66.3167	  73.0362	   0.0000	
  2.9304	  46.9383	   0.0000	
 -3.0750	  54.5331	   0.0000	
 11.3966	  63.1009	   0.0000	
 15.5012	  69.1111	   0.0000	
 21.1046	  73.2822	   0.0000	
 32.6252	  74.4195	   0.0000	
 32.4603	  74.4327	   0.0000	
 18.0941	  79.8088	   0.0000	
 27.0566	  79.8156	   0.0000	
 20.9219	  84.1219	   0.0000	
 30.9057	  90.5156	   0.0000	
 16.5860	  89.4282	   0.0000	
 26.7744	  98.1850	   0.0000	
 43.2776	 102.3519	   0.0000	
 23.5905	 111.6266	   0.0000	
 32.8036	 117.9477	   0.0000	
 34.2770	 111.4789	   0.0000	
 64.9534	 104.0846	   0.0000	
 73.6234	  86.3237	   0.0000	
 -5.3975	  60.9611	   0.0000	
  3.4703	  69.1577	   0.0000	
  8.3542	  75.0286	   0.0000	
 22.1530	  79.5783	   0.0000	
 31.8338	  83.7765	   0.0000	
 27.9348	  83.5017	   0.0000	
 11.3100	  91.9112	   0.0000	
 20.2428	  95.8124	   0.0000	
 17.0427	 102.2348	   0.0000	
 12.8145	 107.2343	   0.0000	
 15.4862	 111.7185	   0.0000	
 21.7249	 119.7844	   0.0000	
  2.4686	 124.6757	   0.0000	
 20.3385	 130.6216	   0.0000	
 14.2376	 145.0711	   0.0000	
  8.2353	 156.7750	   0.0000	
 26.2274	 150.5418	   0.0000	
 56.2614	 132.9807	   0.0000	
 68.1285	 107.4219	   0.0000	
 -2.4604	  30.0912	   0.0000	
  4.1984	  35.7893	   0.0000	
 14.3218	  42.5332	   0.0000	
 25.1562	  50.2254	   0.0000	
  0.5419	  59.0250	   0.0000	
  0.5350	  59.8200	   0.0000	
  8.0513	  63.9468	   0.0000	
  0.6477	  67.7304	   0.0000	
  6.2687	  71.1939	   0.0000	
  0.4668	  74.0910	   0.0000	
  5.7931	  76.9469	   0.0000	
  0.7586	  80.0915	   0.0000	
  6.6338	  83.5174	   0.0000	
 -1.0083	  86.0603	   0.0000	
  0.1241	  85.4212	   0.0000	
 -6.0438	  90.0470	   0.0000	
 -0.4914	  88.3403	   0.0000	
 22.1463	  84.3052	   0.0000	
 57.6064	  74.6369	   0.0000	
 -0.0000	  -0.0000	   0.0000	
  0.0000	   0.0000	   0.0000	
 -0.0000	   0.0000	   0.0000	
 -0.0000	   0.0000	   0.0000	
  0.0000	  -0.0000	   0.0000	
 -0.0000	   0.0000	   0.0000	
  0.0000	   0.0000	   0.0000	
  0.0000	  -0.0000	   0.0000	
 -0.0000	  -0.0000	   0.0000	
  0.0000	   0.0000	   0.0000	
  0.0000	   0.0000	   0.0000	
  0.0000	  -0.0000	   0.0000	
 -0.0000	   0.0000	   0.0000	
 -0.0000	   0.0000	   0.0000	
 -0.0000	  -0.0000	   0.0000	
 -0.0000	  -0.0000	   0.0000	
  0.0000	  -0.0000	   0.0000	
 -0.0000	  -0.0000	   0.0000	
  0.0000	   0.0000	   0.0000	
 50.0000	  50.0000	   0.0000	
 50.0000	  -0.0000	   0.0000	
 68.3484	  50.0896	   0.0000	
 49.9964	  16.0717	   0.0000	
 86.1733	  50.1065	   0.0000	
 49.6722	  32.2598	   0.0000	
 82.8170	  55.0289	   0.0000	
 52.0052	  48.8449	   0.0000	
 80.7731	  59.3655	   0.0000	
 53.9620	  65.7000	   0.0000	
 52.3877	  79.3766	   0.0000	
 49.2881	  78.5581	   0.0000	
 49.4439	  78.5318	   0.0000	
 77.7249	 104.5657	   0.0000	
 45.5335	  76.9735	   0.0000	
 66.7449	  93.1108	   0.0000	
 45.9558	  73.0192	   0.0000	
 57.3357	  84.0095	   0.0000	
 49.2828	  67.9658	   0.0000	
 54.1650	  79.5641	   0.0000	
 47.8490	  66.2231	   0.0000	
 52.0273	  76.3431	   0.0000	
 44.3354	  65.3439	   0.0000	
 56.6075	  76.9086	   0.0000	
 38.8050	  64.8471	   0.0000	
 63.6130	  77.7870	   0.0000	
 41.6835	  59.1880	   0.0000	
 49.1965	  67.9586	   0.0000	
 34.7264	  57.3690	   0.0000	
 60.4973	  69.7882	   0.0000	
 27.4559	  55.0071	   0.0000	
 67.0255	  68.4514	   0.0000	
 17.5754	  52.4712	   0.0000	
 68.7731	  63.6001	   0.0000	
 18.8973	  41.0492	   0.0000	
 78.5299	  60.6041	   0.0000	
-20.2693	  50.1432	   0.0000	
111.6213	  69.7845	   0.0000	
 -9.5925	  23.4715	   0.0000	
106.5842	  48.4394	   0.0000	
 -0.0000	   0.0000	   0.0000	
 -0.0000	  -0.0000	   0.0000	
 50.4342	  50.0000	   0.0000	
 86.8910	 155.5166	   0.0000	
 48.2272	  49.3480	   0.0000	
 51.6957	 138.4435	   0.0000	
 46.1874	  48.8739	   0.0000	
 35.6089	 123.0859	   0.0000	
 45.8366	  47.4636	   0.0000	
 25.2010	 110.0652	   0.0000	
 43.5074	  47.1228	   0.0000	
 25.8859	 104.3542	   0.0000	
 43.5406	  45.9047	   0.0000	
 25.1225	  99.5802	   0.0000	
 43.8116	  45.3697	   0.0000	
 26.0124	  96.2012	   0.0000	
 44.5822	  44.2870	   0.0000	
 25.9590	  92.3917	   0.0000	
 43.5315	  43.8037	   0.0000	
 28.6476	  89.3109	   0.0000	
 40.1242	  44.2025	   0.0000	
 32.0662	  86.0950	   0.0000	
 40.4889	  42.7142	   0.0000	
 36.9680	  83.3803	   0.0000	
 46.3269	  39.1996	   0.0000	
 27.5012	  75.2410	   0.0000	
 41.0426	  39.5317	   0.0000	
 36.8912	  74.0117	   0.0000	
 40.7668	  36.6660	   0.0000	
 39.4316	  68.7916	   0.0000	
 38.6352	  32.8208	   0.0000	
 40.7812	  62.8640	   0.0000	
 41.2290	  27.1650	   0.0000	
 46.0378	  54.9186	   0.0000	
 22.9670	  26.4332	   0.0000	
 65.4719	  50.2933	   0.0000	
 18.3764	  18.8070	   0.0000	
 68.9192	  38.0150	   0.0000	
 35.7000	   2.6481	   0.0000	
 61.1929	  21.2666	   0.0000	
 25.2714	   0.5119	   0.0000	
 -1.8774	  -1.3033	   0.0000	
 -0.0000	   0.0000	   0.0000	
 -0.0000	  -0.0000	   0.0000	
 56.5180	  50.0000	   0.0000	
-43.7377	  67.8160	   0.0000	
 52.0946	  50.8006	   0.0000	
-12.1018	  69.3058	   0.0000	
 49.5827	  51.1471	   0.0000	
  2.8586	  69.1870	   0.0000	
 46.9633	  51.9454	   0.0000	
 10.3508	  68.7233	   0.0000	
 47.1797	  52.1896	   0.0000	
 12.3464	  67.3818	   0.0000	
 47.7961	  52.5946	   0.0000	
 12.7944	  66.1197	   0.0000	
 47.2425	  53.3366	   0.0000	
 14.1496	  64.5758	   0.0000	
 46.8185	  53.2470	   0.0000	
 16.0807	  62.7124	   0.0000	
 46.4311	  54.0190	   0.0000	
 17.4930	  61.0861	   0.0000	
 45.4033	  54.6241	   0.0000	
 20.5308	  59.9998	   0.0000	
 51.0720	  54.2983	   0.0000	
 15.4004	  58.2067	   0.0000	
 51.0864	  54.6670	   0.0000	
 17.1603	  55.4171	   0.0000	
 55.1007	  54.6971	   0.0000	
 18.0560	  52.5961	   0.0000	
 57.1538	  55.3123	   0.0000	
  9.6518	  48.8385	   0.0000	
 60.5703	  55.4437	   0.0000	
 13.8732	  45.9800	   0.0000	
 61.6276	  52.6508	   0.0000	
 18.3355	  39.7167	   0.0000	
 60.0857	  51.3316	   0.0000	
 23.0548	  35.2065	   0.0000	
 65.5301	  51.3255	   0.0000	
 26.9406	  31.1277	   0.0000	
 62.5714	  50.0582	   0.0000	
  1.5093	  31.1711	   0.0000	
 38.4779	  49.4120	   0.0000	
  3.0136	  36.5618	   0.0000	
 28.0505	  46.7166	   0.0000	
 -0.1584	  38.9538	   0.0000	
 44.4556	  50.0000	   0.0000	
 11.5449	  54.6386	   0.0000	
 45.7423	  50.9399	   0.0000	
 -2.3495	  59.8021	   0.0000	
 44.0347	  51.2004	   0.0000	
  1.4794	  60.3877	   0.0000	
 42.3422	  51.2401	   0.0000	
  5.2075	  59.8279	   0.0000	
 42.3243	  51.7141	   0.0000	
  6.4699	  59.7341	   0.0000	
 42.6250	  52.2517	   0.0000	
  7.2436	  59.7535	   0.0000	
 41.0310	  52.3786	   0.0000	
 10.1783	  59.0009	   0.0000	
 41.5880	  53.2441	   0.0000	
  8.7643	  59.9377	   0.0000	
 42.8203	  53.8409	   0.0000	
 11.1547	  59.1614	   0.0000	
 42.1908	  54.5531	   0.0000	
 13.1082	  58.8529	   0.0000	
 43.8371	  55.8789	   0.0000	
 14.2037	  59.1065	   0.0000	
 43.7909	  56.7047	   0.0000	
 12.6430	  59.1069	   0.0000	
 45.0607	  58.6276	   0.0000	
  7.3927	  60.9846	   0.0000	
 46.5535	  60.9494	   0.0000	
 11.5617	  61.4094	   0.0000	
 46.4883	  62.4201	   0.0000	
 10.2953	  61.5886	   0.0000	
 53.7358	  67.4516	   0.0000	
  6.4838	  63.5712	   0.0000	
 50.9775	  69.9564	   0.0000	
  9.7762	  62.9091	   0.0000	
 49.7660	  73.4083	   0.0000	
 14.6601	  61.6342	   0.0000	
 51.0899	  77.1608	   0.0000	
 19.5062	  59.1366	   0.0000	
 42.9566	  81.9923	   0.0000	
 19.2305	  65.3544	   0.0000	
 22.7533	  82.2783	   0.0000	
 21.5932	  69.6535	   0.0000	
 45.3754	  50.0000	   0.0000	
 -1.1646	  45.7354	   0.0000	
 45.0953	  49.8177	   0.0000	
  2.4949	  44.9274	   0.0000	
 44.2172	  49.7851	   0.0000	
  5.1601	  44.2042	   0.0000	
 42.9279	  49.4682	   0.0000	
  8.0368	  43.4320	   0.0000	
 42.9598	  49.6975	   0.0000	
  6.7126	  45.1110	   0.0000	
 42.9067	  49.8081	   0.0000	
  5.5551	  47.0893	   0.0000	
 41.6968	  49.3309	   0.0000	
  7.0658	  47.3778	   0.0000	
 41.6340	  49.5404	   0.0000	
  7.9980	  48.3925	   0.0000	
 40.9985	  49.5478	   0.0000	
 10.0532	  48.5992	   0.0000	
 39.9378	  49.0789	   0.0000	
 11.1918	  49.0676	   0.0000	
 41.8248	  50.3047	   0.0000	
  9.8145	  50.8714	   0.0000	
 37.9525	  49.0709	   0.0000	
 15.0536	  49.3981	   0.0000	
 39.4543	  50.6798	   0.0000	
 15.1125	  50.3919	   0.0000	
 39.7219	  51.5214	   0.0000	
 13.1559	  52.2336	   0.0000	
 39.8274	  53.2655	   0.0000	
 14.7377	  54.0866	   0.0000	
 39.0963	  54.1395	   0.0000	
 14.4871	  55.2747	   0.0000	
 38.5309	  56.5511	   0.0000	
 14.7075	  57.7268	   0.0000	
 39.8413	  61.3315	   0.0000	
 14.2964	  60.9473	   0.0000	
 35.7520	  63.5720	   0.0000	
 21.3752	  60.9095	   0.0000	
 41.3047	  69.8116	   0.0000	
 17.1382	  64.3233	   0.0000	
 22.0670	  67.9872	   0.0000	
 38.0413	  58.4746	   0.0000	
 51.4059	  50.0000	   0.0000	
  0.8058	  30.8662	   0.0000	
 48.6572	  49.4299	   0.0000	
  2.2425	  32.2450	   0.0000	
 45.6330	  48.7971	   0.0000	
  3.6403	  33.6372	   0.0000	
 44.6617	  48.7004	   0.0000	
  4.9361	  35.0232	   0.0000	
 45.3887	  49.1876	   0.0000	
  7.2710	  36.0479	   0.0000	
 45.3850	  49.3990	   0.0000	
  7.9447	  37.9827	   0.0000	
 42.2479	  47.3714	   0.0000	
  9.0113	  39.0054	   0.0000	
 41.7414	  47.4946	   0.0000	
 10.2162	  39.2626	   0.0000	
 41.6605	  47.9772	   0.0000	
 10.8622	  40.0966	   0.0000	
 40.5700	  48.0289	   0.0000	
 12.1635	  41.4186	   0.0000	
 40.2367	  48.2592	   0.0000	
 13.7394	  42.5184	   0.0000	
 39.2002	  48.2034	   0.0000	
 15.0255	  43.5261	   0.0000	
 39.0312	  48.8126	   0.0000	
 15.5020	  45.3967	   0.0000	
 38.4773	  49.5125	   0.0000	
 15.6213	  47.3529	   0.0000	
 38.2915	  48.8874	   0.0000	
 16.0936	  47.3085	   0.0000	
 37.1865	  49.2705	   0.0000	
 16.3800	  48.2014	   0.0000	
 34.8572	  48.9553	   0.0000	
 23.3093	  46.4587	   0.0000	
 37.2635	  52.1462	   0.0000	
 17.7358	  52.6894	   0.0000	
 33.7994	  51.4620	   0.0000	
 21.8776	  52.6083	   0.0000	
 30.7241	  51.7360	   0.0000	
 23.1879	  54.7769	   0.0000	
 31.4727	  56.5870	   0.0000	
 21.0518	  57.8479	   0.0000	
  0.0000	   0.0000	   0.0000	
  0.0000	   0.0000	   0.0000	
 -0.0000	   0.0000	   0.0000	
  0.0000	  -0.0000	   0.0000	
 -0.0000	   0.0000	   0.0000	
  0.0000	   0.0000	   0.0000	
 -0.0000	   0.0000	   0.0000	
 -0.0000	  -0.0000	   0.0000	
 -0.0000	  -0.0000	   0.0000	
 -0.0000	   0.0000	   0.0000	
 -0.0000	  -0.0000	   0.0000	
 -0.0000	  -0.0000	   0.0000	
 -0.0000	   0.0000	   0.0000	
 -0.0000	  -0.0000	   0.0000	