# vtk DataFile Version 3.0 
Results 
ASCII 
DATASET UNSTRUCTURED_GRID 
POINTS 	     299 float 
  0.0000	   1.5000	  0.0000	 
  0.0000	   3.0000	  0.0000	 
  0.0000	   4.5000	  0.0000	 
  0.0000	   6.0000	  0.0000	 
  0.0000	   7.5000	  0.0000	 
  0.0000	   9.0000	  0.0000	 
  0.0000	  10.5000	  0.0000	 
  0.5625	   2.0156	  0.0000	 
  0.5625	   3.3438	  0.0000	 
  0.5625	   4.6719	  0.0000	 
  0.5625	   6.0000	  0.0000	 
  0.5625	   7.3281	  0.0000	 
  0.5625	   8.6562	  0.0000	 
  0.5625	   9.9844	  0.0000	 
  1.1250	   2.5312	  0.0000	 
  1.1250	   3.6875	  0.0000	 
  1.1250	   4.8438	  0.0000	 
  1.1250	   6.0000	  0.0000	 
  1.1250	   7.1562	  0.0000	 
  1.1250	   8.3125	  0.0000	 
  1.1250	   9.4688	  0.0000	 
  1.6875	   3.0469	  0.0000	 
  1.6875	   4.0312	  0.0000	 
  1.6875	   5.0156	  0.0000	 
  1.6875	   6.0000	  0.0000	 
  1.6875	   6.9844	  0.0000	 
  1.6875	   7.9688	  0.0000	 
  1.6875	   8.9531	  0.0000	 
  2.2500	   3.5625	  0.0000	 
  2.2500	   4.3750	  0.0000	 
  2.2500	   5.1875	  0.0000	 
  2.2500	   6.0000	  0.0000	 
  2.2500	   6.8125	  0.0000	 
  2.2500	   7.6250	  0.0000	 
  2.2500	   8.4375	  0.0000	 
  2.8125	   4.0781	  0.0000	 
  2.8125	   4.7188	  0.0000	 
  2.8125	   5.3594	  0.0000	 
  2.8125	   6.0000	  0.0000	 
  2.8125	   6.6406	  0.0000	 
  2.8125	   7.2812	  0.0000	 
  2.8125	   7.9219	  0.0000	 
  3.3750	   4.5938	  0.0000	 
  3.3750	   5.0625	  0.0000	 
  3.3750	   5.5312	  0.0000	 
  3.3750	   6.0000	  0.0000	 
  3.3750	   6.4688	  0.0000	 
  3.3750	   6.9375	  0.0000	 
  3.3750	   7.4062	  0.0000	 
  3.9375	   5.1094	  0.0000	 
  3.9375	   5.4062	  0.0000	 
  3.9375	   5.7031	  0.0000	 
  3.9375	   6.0000	  0.0000	 
  3.9375	   6.2969	  0.0000	 
  3.9375	   6.5938	  0.0000	 
  3.9375	   6.8906	  0.0000	 
  4.5000	   5.6250	  0.0000	 
  4.5000	   5.7500	  0.0000	 
  4.5000	   5.8750	  0.0000	 
  4.5000	   6.0000	  0.0000	 
  4.5000	   6.1250	  0.0000	 
  4.5000	   6.2500	  0.0000	 
  4.5000	   6.3750	  0.0000	 
  0.0000	   0.0000	  0.0000	 
  0.0000	  12.0000	  0.0000	 
  0.5625	   0.6875	  0.0000	 
  0.5625	  11.3125	  0.0000	 
  1.1250	   1.3750	  0.0000	 
  1.1250	  10.6250	  0.0000	 
  1.6875	   2.0625	  0.0000	 
  1.6875	   9.9375	  0.0000	 
  2.2500	   2.7500	  0.0000	 
  2.2500	   9.2500	  0.0000	 
  2.8125	   3.4375	  0.0000	 
  2.8125	   8.5625	  0.0000	 
  3.3750	   4.1250	  0.0000	 
  3.3750	   7.8750	  0.0000	 
  3.9375	   4.8125	  0.0000	 
  3.9375	   7.1875	  0.0000	 
  4.5000	   5.5000	  0.0000	 
  4.5000	   6.5000	  0.0000	 
  2.8000	   0.0000	  0.0000	 
  2.8000	  12.0000	  0.0000	 
  3.1375	   0.6875	  0.0000	 
  3.1375	  11.3125	  0.0000	 
  3.4750	   1.3750	  0.0000	 
  3.4750	  10.6250	  0.0000	 
  3.8125	   2.0625	  0.0000	 
  3.8125	   9.9375	  0.0000	 
  4.1500	   2.7500	  0.0000	 
  4.1500	   9.2500	  0.0000	 
  4.4875	   3.4375	  0.0000	 
  4.4875	   8.5625	  0.0000	 
  4.8250	   4.1250	  0.0000	 
  4.8250	   7.8750	  0.0000	 
  5.1625	   4.8125	  0.0000	 
  5.1625	   7.1875	  0.0000	 
  5.5000	   5.5000	  0.0000	 
  5.5000	   6.5000	  0.0000	 
  5.6000	   0.0000	  0.0000	 
  5.6000	  12.0000	  0.0000	 
  5.7125	   0.6875	  0.0000	 
  5.7125	  11.3125	  0.0000	 
  5.8250	   1.3750	  0.0000	 
  5.8250	  10.6250	  0.0000	 
  5.9375	   2.0625	  0.0000	 
  5.9375	   9.9375	  0.0000	 
  6.0500	   2.7500	  0.0000	 
  6.0500	   9.2500	  0.0000	 
  6.1625	   3.4375	  0.0000	 
  6.1625	   8.5625	  0.0000	 
  6.2750	   4.1250	  0.0000	 
  6.2750	   7.8750	  0.0000	 
  6.3875	   4.8125	  0.0000	 
  6.3875	   7.1875	  0.0000	 
  6.5000	   5.5000	  0.0000	 
  6.5000	   6.5000	  0.0000	 
  8.4000	   0.0000	  0.0000	 
  8.4000	  12.0000	  0.0000	 
  8.2875	   0.6875	  0.0000	 
  8.2875	  11.3125	  0.0000	 
  8.1750	   1.3750	  0.0000	 
  8.1750	  10.6250	  0.0000	 
  8.0625	   2.0625	  0.0000	 
  8.0625	   9.9375	  0.0000	 
  7.9500	   2.7500	  0.0000	 
  7.9500	   9.2500	  0.0000	 
  7.8375	   3.4375	  0.0000	 
  7.8375	   8.5625	  0.0000	 
  7.7250	   4.1250	  0.0000	 
  7.7250	   7.8750	  0.0000	 
  7.6125	   4.8125	  0.0000	 
  7.6125	   7.1875	  0.0000	 
  7.5000	   5.5000	  0.0000	 
  7.5000	   6.5000	  0.0000	 
 11.2000	   0.0000	  0.0000	 
 11.2000	  12.0000	  0.0000	 
 10.8625	   0.6875	  0.0000	 
 10.8625	  11.3125	  0.0000	 
 10.5250	   1.3750	  0.0000	 
 10.5250	  10.6250	  0.0000	 
 10.1875	   2.0625	  0.0000	 
 10.1875	   9.9375	  0.0000	 
  9.8500	   2.7500	  0.0000	 
  9.8500	   9.2500	  0.0000	 
  9.5125	   3.4375	  0.0000	 
  9.5125	   8.5625	  0.0000	 
  9.1750	   4.1250	  0.0000	 
  9.1750	   7.8750	  0.0000	 
  8.8375	   4.8125	  0.0000	 
  8.8375	   7.1875	  0.0000	 
  8.5000	   5.5000	  0.0000	 
  8.5000	   6.5000	  0.0000	 
 14.0000	   0.0000	  0.0000	 
 14.0000	  12.0000	  0.0000	 
 13.4375	   0.6875	  0.0000	 
 13.4375	  11.3125	  0.0000	 
 12.8750	   1.3750	  0.0000	 
 12.8750	  10.6250	  0.0000	 
 12.3125	   2.0625	  0.0000	 
 12.3125	   9.9375	  0.0000	 
 11.7500	   2.7500	  0.0000	 
 11.7500	   9.2500	  0.0000	 
 11.1875	   3.4375	  0.0000	 
 11.1875	   8.5625	  0.0000	 
 10.6250	   4.1250	  0.0000	 
 10.6250	   7.8750	  0.0000	 
 10.0625	   4.8125	  0.0000	 
 10.0625	   7.1875	  0.0000	 
  9.5000	   5.5000	  0.0000	 
  9.5000	   6.5000	  0.0000	 
  5.5000	   5.5000	  0.0000	 
  5.5000	   6.5000	  0.0000	 
  5.5000	   5.6567	  0.0000	 
  5.5000	   6.3433	  0.0000	 
  5.5000	   5.8133	  0.0000	 
  5.5000	   6.1867	  0.0000	 
  6.5000	   5.5000	  0.0000	 
  6.5000	   6.5000	  0.0000	 
  6.5000	   5.6567	  0.0000	 
  6.5000	   6.3433	  0.0000	 
  6.5000	   5.8133	  0.0000	 
  6.5000	   6.1867	  0.0000	 
  7.5000	   5.5000	  0.0000	 
  7.5000	   6.5000	  0.0000	 
  7.5000	   5.6567	  0.0000	 
  7.5000	   6.3433	  0.0000	 
  7.5000	   5.8133	  0.0000	 
  7.5000	   6.1867	  0.0000	 
  8.5000	   5.5000	  0.0000	 
  8.5000	   6.5000	  0.0000	 
  8.5000	   5.6567	  0.0000	 
  8.5000	   6.3433	  0.0000	 
  8.5000	   5.8133	  0.0000	 
  8.5000	   6.1867	  0.0000	 
  9.5000	   5.5000	  0.0000	 
  9.5000	   6.5000	  0.0000	 
  9.5000	   5.6567	  0.0000	 
  9.5000	   6.3433	  0.0000	 
  9.5000	   5.8133	  0.0000	 
  9.5000	   6.1867	  0.0000	 
  5.5000	   5.9700	  0.0000	 
  5.5000	   6.0000	  0.0000	 
  5.5000	   6.0300	  0.0000	 
  6.5000	   5.9700	  0.0000	 
  6.5000	   6.0000	  0.0000	 
  6.5000	   6.0300	  0.0000	 
  7.5000	   5.9700	  0.0000	 
  7.5000	   6.0000	  0.0000	 
  7.5000	   6.0300	  0.0000	 
  8.5000	   5.9700	  0.0000	 
  8.5000	   6.0000	  0.0000	 
  8.5000	   6.0300	  0.0000	 
  9.5000	   5.9700	  0.0000	 
  9.5000	   6.0000	  0.0000	 
  9.5000	   6.0300	  0.0000	 
 10.0625	   5.1371	  0.0000	 
 10.0625	   6.8629	  0.0000	 
 10.0625	   5.4617	  0.0000	 
 10.0625	   6.5383	  0.0000	 
 10.0625	   5.7862	  0.0000	 
 10.0625	   6.2138	  0.0000	 
 10.6250	   4.6175	  0.0000	 
 10.6250	   7.3825	  0.0000	 
 10.6250	   5.1100	  0.0000	 
 10.6250	   6.8900	  0.0000	 
 10.6250	   5.6025	  0.0000	 
 10.6250	   6.3975	  0.0000	 
 11.1875	   4.0979	  0.0000	 
 11.1875	   7.9021	  0.0000	 
 11.1875	   4.7583	  0.0000	 
 11.1875	   7.2417	  0.0000	 
 11.1875	   5.4188	  0.0000	 
 11.1875	   6.5812	  0.0000	 
 11.7500	   3.5783	  0.0000	 
 11.7500	   8.4217	  0.0000	 
 11.7500	   4.4067	  0.0000	 
 11.7500	   7.5933	  0.0000	 
 11.7500	   5.2350	  0.0000	 
 11.7500	   6.7650	  0.0000	 
 12.3125	   3.0587	  0.0000	 
 12.3125	   8.9413	  0.0000	 
 12.3125	   4.0550	  0.0000	 
 12.3125	   7.9450	  0.0000	 
 12.3125	   5.0512	  0.0000	 
 12.3125	   6.9488	  0.0000	 
 12.8750	   2.5392	  0.0000	 
 12.8750	   9.4608	  0.0000	 
 12.8750	   3.7033	  0.0000	 
 12.8750	   8.2967	  0.0000	 
 12.8750	   4.8675	  0.0000	 
 12.8750	   7.1325	  0.0000	 
 13.4375	   2.0196	  0.0000	 
 13.4375	   9.9804	  0.0000	 
 13.4375	   3.3517	  0.0000	 
 13.4375	   8.6483	  0.0000	 
 13.4375	   4.6837	  0.0000	 
 13.4375	   7.3163	  0.0000	 
 14.0000	   1.5000	  0.0000	 
 14.0000	  10.5000	  0.0000	 
 14.0000	   3.0000	  0.0000	 
 14.0000	   9.0000	  0.0000	 
 14.0000	   4.5000	  0.0000	 
 14.0000	   7.5000	  0.0000	 
 10.0625	   6.0000	  0.0000	 
 10.6250	   6.0000	  0.0000	 
 11.1875	   6.0000	  0.0000	 
 11.7500	   6.0000	  0.0000	 
 12.3125	   6.0000	  0.0000	 
 12.8750	   6.0000	  0.0000	 
 13.4375	   6.0000	  0.0000	 
 14.0000	   6.0000	  0.0000	 
 15.8333	   0.0000	  0.0000	 
 15.8333	   1.5000	  0.0000	 
 15.8333	   3.0000	  0.0000	 
 15.8333	   4.5000	  0.0000	 
 15.8333	   6.0000	  0.0000	 
 15.8333	   7.5000	  0.0000	 
 15.8333	   9.0000	  0.0000	 
 15.8333	  10.5000	  0.0000	 
 15.8333	  12.0000	  0.0000	 
 17.6667	   0.0000	  0.0000	 
 17.6667	   1.5000	  0.0000	 
 17.6667	   3.0000	  0.0000	 
 17.6667	   4.5000	  0.0000	 
 17.6667	   6.0000	  0.0000	 
 17.6667	   7.5000	  0.0000	 
 17.6667	   9.0000	  0.0000	 
 17.6667	  10.5000	  0.0000	 
 17.6667	  12.0000	  0.0000	 
 19.5000	   0.0000	  0.0000	 
 19.5000	   1.5000	  0.0000	 
 19.5000	   3.0000	  0.0000	 
 19.5000	   4.5000	  0.0000	 
 19.5000	   6.0000	  0.0000	 
 19.5000	   7.5000	  0.0000	 
 19.5000	   9.0000	  0.0000	 
 19.5000	  10.5000	  0.0000	 
 19.5000	  12.0000	  0.0000	 

CELLS 	     528 	    2112 
       3	       30	      37	       31	
       3	      275	     271	      262	
       3	       34	      41	       74	
       3	        6	      13	       68	
       3	      194	     192	      186	
       3	      182	     188	      180	
       3	        5	      13	        6	
       3	       23	      22	       29	
       3	       91	      93	       75	
       3	       20	      13	        5	
       3	       67	      65	       81	
       3	       70	      84	       68	
       3	        0	      63	       65	
       3	       26	      25	       33	
       3	       20	       5	       12	
       3	       55	      47	       54	
       3	       20	      70	       13	
       3	       73	      28	       71	
       3	      102	     104	      122	
       3	      127	     129	      109	
       3	      140	     160	      138	
       3	      241	     235	      243	
       3	      277	     261	      263	
[...]
POINT_DATA 	     299 
VECTORS U float 
 50.0000	   0.0000	   0.0000	
 50.0000	   0.0000	   0.0000	
 50.0000	  -0.0000	   0.0000	
 50.0000	   0.0000	   0.0000	
 50.0000	  -0.0000	   0.0000	
 50.0000	   0.0000	   0.0000	
 50.0000	   0.0000	   0.0000	
 48.6947	  15.0627	   0.0000	
 51.6445	  13.6173	   0.0000	
 48.1645	  18.5695	   0.0000	
 43.6932	  34.4599	   0.0000	
 54.2469	  43.8862	   0.0000	
 48.4670	  26.9901	   0.0000	
 51.7519	  39.7784	   0.0000	
 50.3117	  35.1283	   0.0000	
 48.6501	  38.2062	   0.0000	
 38.9928	  58.9043	   0.0000	
 43.0662	  66.5528	   0.0000	
 49.9903	  64.3348	   0.0000	
 57.9621	  69.8259	   0.0000	
 39.2688	  68.5119	   0.0000	
 48.8236	  58.8222	   0.0000	
 36.1551	  69.3344	   0.0000	
 33.0727	  78.4257	   0.0000	
 36.8278	  88.4047	   0.0000	
 53.6699	  98.1939	   0.0000	
 50.6441	  91.7504	   0.0000	
 44.7852	 111.6991	   0.0000	
 36.7129	  65.5318	   0.0000	
 30.5001	  70.3892	   0.0000	
 29.6659	  76.2295	   0.0000	
 38.8126	  76.9864	   0.0000	
 40.0997	  77.2040	   0.0000	
 57.9635	  90.2131	   0.0000	
 36.5902	  88.7093	   0.0000	
 30.0043	  76.4502	   0.0000	
 26.6520	  75.9323	   0.0000	
 28.1908	  75.0546	   0.0000	
 41.4382	  71.4045	   0.0000	
 34.5488	  74.8440	   0.0000	
 40.1105	  94.8659	   0.0000	
 52.4180	 110.1802	   0.0000	
 28.5893	  72.4323	   0.0000	
 25.9227	  74.5448	   0.0000	
 36.8993	  80.4002	   0.0000	
 10.6864	 102.7667	   0.0000	
 24.4429	 130.9320	   0.0000	
 13.5471	 147.0110	   0.0000	
 35.0921	 138.6360	   0.0000	
 11.4880	  50.9670	   0.0000	
 20.2359	  62.9984	   0.0000	
 -1.1843	  73.9606	   0.0000	
  2.6971	  76.4260	   0.0000	
 -1.5101	  77.3326	   0.0000	
  2.7292	  79.9615	   0.0000	
 25.2624	  79.1093	   0.0000	
  0.0000	  -0.0000	   0.0000	
 -0.0000	  -0.0000	   0.0000	
 -0.0000	  -0.0000	   0.0000	
 -0.0000	   0.0000	   0.0000	
  0.0000	   0.0000	   0.0000	
 -0.0000	   0.0000	   0.0000	
  0.0000	  -0.0000	   0.0000	
 50.0000	  50.0000	   0.0000	
 50.0000	   0.0000	   0.0000	
 68.0666	  54.5661	   0.0000	
 54.4191	  35.8975	   0.0000	
 87.4862	  59.2938	   0.0000	
 46.1792	  64.5285	   0.0000	
 66.2724	  71.2325	   0.0000	
 67.8131	  81.8715	   0.0000	
 61.0553	  70.6721	   0.0000	
 67.2155	  78.1905	   0.0000	
 40.6662	  76.5405	   0.0000	
 57.0304	  71.5096	   0.0000	
 26.9859	  66.9847	   0.0000	
 96.8643	  89.5558	   0.0000	
 22.0416	  49.9416	   0.0000	
 59.6481	  63.3806	   0.0000	
 -0.0000	  -0.0000	   0.0000	
 -0.0000	   0.0000	   0.0000	
 32.0777	  50.0000	   0.0000	
 74.7921	 136.1138	   0.0000	
 65.8720	  40.0544	   0.0000	
 16.3668	 108.7354	   0.0000	
 52.4382	  44.2198	   0.0000	
 33.4993	 100.5148	   0.0000	
 49.7050	  46.2268	   0.0000	
 41.2067	  91.8705	   0.0000	
 42.7932	  43.1616	   0.0000	
 39.8497	  80.8765	   0.0000	
 38.9364	  35.0811	   0.0000	
 58.5462	  60.8136	   0.0000	
 21.7564	  28.7931	   0.0000	
 83.0408	  40.3908	   0.0000	
 66.1987	   0.6730	   0.0000	
  6.6189	  -3.1594	   0.0000	
 -0.0000	   0.0000	   0.0000	
  0.0000	  -0.0000	   0.0000	
 74.2926	  50.0000	   0.0000	
-10.7428	  73.4092	   0.0000	
 51.4052	  55.6680	   0.0000	
 17.2995	  76.7697	   0.0000	
 50.3564	  57.2638	   0.0000	
 11.3519	  70.1452	   0.0000	
 52.3963	  58.1902	   0.0000	
 23.8047	  62.6495	   0.0000	
 59.3662	  58.0557	   0.0000	
  5.9767	  53.5187	   0.0000	
 54.7974	  58.2294	   0.0000	
 21.6188	  43.5445	   0.0000	
 66.8381	  52.5727	   0.0000	
 17.7074	  20.6662	   0.0000	
 86.6338	  59.0632	   0.0000	
  2.3722	  30.2437	   0.0000	
 29.1444	  47.3158	   0.0000	
  4.3488	  37.8761	   0.0000	
 52.4729	  50.0000	   0.0000	
  8.9969	  59.4912	   0.0000	
 51.2787	  50.5021	   0.0000	
  8.3490	  58.7008	   0.0000	
 46.5691	  50.5438	   0.0000	
  5.6839	  58.4288	   0.0000	
 46.8548	  51.4819	   0.0000	
  4.2997	  60.2301	   0.0000	
 52.8170	  55.4478	   0.0000	
 12.2941	  62.5940	   0.0000	
 43.5027	  57.6056	   0.0000	
  9.7676	  65.4994	   0.0000	
 54.1843	  64.7313	   0.0000	
 -6.3536	  65.4603	   0.0000	
 65.6967	  75.7427	   0.0000	
 23.7387	  61.2038	   0.0000	
 48.3838	  85.1019	   0.0000	
 11.7959	  70.2276	   0.0000	
 49.3370	  50.0000	   0.0000	
  0.6278	  47.1344	   0.0000	
 46.5864	  50.5307	   0.0000	
  6.6611	  46.7508	   0.0000	
 47.1146	  52.2639	   0.0000	
  6.1387	  48.4298	   0.0000	
 43.7034	  51.5531	   0.0000	
  9.1884	  50.8454	   0.0000	
 43.1384	  53.3053	   0.0000	
 13.9529	  53.0654	   0.0000	
 41.0918	  55.4238	   0.0000	
 16.4642	  53.1635	   0.0000	
 42.6651	  56.9846	   0.0000	
  0.1819	  60.9435	   0.0000	
 51.9146	  65.2897	   0.0000	
 23.0846	  68.2695	   0.0000	
 37.5717	  73.8251	   0.0000	
 29.3221	  65.3063	   0.0000	
 64.4770	  50.0000	   0.0000	
  1.0728	  31.7446	   0.0000	
 57.1327	  46.4751	   0.0000	
  4.7095	  35.0805	   0.0000	
 47.2538	  41.7706	   0.0000	
  8.7415	  38.2341	   0.0000	
 47.0837	  44.0512	   0.0000	
  8.2486	  41.6600	   0.0000	
 44.2130	  46.0169	   0.0000	
 13.7651	  43.3524	   0.0000	
 42.0666	  46.9442	   0.0000	
 17.2369	  45.7805	   0.0000	
 41.3870	  49.4133	   0.0000	
 14.6923	  51.6252	   0.0000	
 41.7095	  52.5773	   0.0000	
 33.9655	  61.6773	   0.0000	
 30.1335	  63.5131	   0.0000	
 27.0963	  70.7684	   0.0000	
  0.0000	   0.0000	   0.0000	
  0.0000	   0.0000	   0.0000	
  0.0000	  -0.0000	   0.0000	
  0.0000	   0.0000	   0.0000	
  0.0000	  -0.0000	   0.0000	
 -0.0000	  -0.0000	   0.0000	
  0.0000	   0.0000	   0.0000	
  0.0000	   0.0000	   0.0000	
 -3.6700	  43.7015	   0.0000	
 -9.6403	  38.4600	   0.0000	
 15.1312	  38.6482	   0.0000	
  4.4453	  37.1281	   0.0000	
  0.0000	   0.0000	   0.0000	
  0.0000	   0.0000	   0.0000	
 40.3438	  84.3389	   0.0000	
  5.8089	  74.9199	   0.0000	
 22.3753	  81.2520	   0.0000	
  9.4413	  78.4019	   0.0000	
  0.0000	   0.0000	   0.0000	
  0.0000	   0.0000	   0.0000	
 33.9143	  76.5093	   0.0000	
 33.8518	  69.1366	   0.0000	
 27.0704	  77.6267	   0.0000	
 32.2470	  70.2415	   0.0000	
  0.0000	   0.0000	   0.0000	
  0.0000	   0.0000	   0.0000	
 22.2034	  65.9560	   0.0000	
 36.3654	  69.8547	   0.0000	
 30.8946	  64.8620	   0.0000	
 33.2192	  67.7923	   0.0000	
 -0.0000	   0.0000	   0.0000	
 -0.0000	  -0.0000	   0.0000	
  0.0000	  -0.0000	   0.0000	
 -1.5201	  38.3991	   0.0000	
  2.9185	  37.6571	   0.0000	
  0.0160	  38.0795	   0.0000	
  4.4175	  81.4638	   0.0000	
  4.6406	  80.4678	   0.0000	
  0.2323	  80.7610	   0.0000	
 23.2079	  75.0494	   0.0000	
 30.5923	  74.3613	   0.0000	
 18.3062	  74.1930	   0.0000	
 22.1382	  67.7421	   0.0000	
 33.4112	  66.0393	   0.0000	
 30.2399	  68.2456	   0.0000	
 35.8464	  54.3638	   0.0000	
 27.2044	  58.3869	   0.0000	
 25.7641	  54.7621	   0.0000	
 23.9186	  56.2562	   0.0000	
 26.9037	  53.8611	   0.0000	
 29.1933	  52.2150	   0.0000	
 41.9618	  51.1221	   0.0000	
 29.8979	  54.7937	   0.0000	
 35.2491	  52.9206	   0.0000	
 23.4751	  50.0027	   0.0000	
 26.6767	  51.1452	   0.0000	
 23.9300	  51.6525	   0.0000	
 38.7216	  50.0862	   0.0000	
 18.8097	  50.3881	   0.0000	
 37.9094	  53.1937	   0.0000	
 26.4253	  46.2079	   0.0000	
 30.9283	  54.5590	   0.0000	
 24.9025	  49.4427	   0.0000	
 39.5579	  47.8068	   0.0000	
 20.3382	  45.4213	   0.0000	
 37.2701	  48.0340	   0.0000	
 20.0144	  47.4635	   0.0000	
 32.4957	  50.3342	   0.0000	
 27.9045	  45.1398	   0.0000	
 41.5983	  44.7366	   0.0000	
 18.1494	  44.2988	   0.0000	
 38.3854	  44.2353	   0.0000	
 21.4267	  43.2028	   0.0000	
 32.3521	  45.2368	   0.0000	
 25.1272	  47.5105	   0.0000	
 43.7298	  44.4856	   0.0000	
 14.2570	  40.7999	   0.0000	
 39.8760	  44.0054	   0.0000	
 20.1989	  39.5568	   0.0000	
 32.9168	  45.2246	   0.0000	
 26.1962	  41.6320	   0.0000	
 44.4086	  42.3238	   0.0000	
 11.3955	  36.8227	   0.0000	
 41.3713	  41.7443	   0.0000	
 18.7233	  37.0785	   0.0000	
 33.4737	  42.3581	   0.0000	
 26.4558	  39.1648	   0.0000	
 49.4910	  47.4898	   0.0000	
  9.7839	  31.5231	   0.0000	
 43.3153	  40.6959	   0.0000	
 16.8494	  32.3645	   0.0000	
 35.3272	  39.1066	   0.0000	
 25.8995	  32.4991	   0.0000	
 25.7419	  52.2923	   0.0000	
 29.7913	  50.5032	   0.0000	
 29.1083	  51.9037	   0.0000	
 30.9700	  47.9066	   0.0000	
 32.9717	  46.2926	   0.0000	
 32.0418	  44.1220	   0.0000	
 32.8260	  41.0886	   0.0000	
 33.5285	  32.7330	   0.0000	
 67.5409	  50.0000	   0.0000	
 58.3624	  42.3920	   0.0000	
 46.6241	  37.9796	   0.0000	
 44.6090	  28.3932	   0.0000	
 34.5247	  26.0196	   0.0000	
 26.0932	  25.1595	   0.0000	
 17.6667	  24.1499	   0.0000	
  9.5410	  24.3063	   0.0000	
  0.5302	  24.4605	   0.0000	
 77.3489	  50.0000	   0.0000	
 66.8495	  41.6980	   0.0000	
 62.3589	  25.6819	   0.0000	
 50.2493	  17.9009	   0.0000	
 37.2512	  13.7588	   0.0000	
 28.3164	  10.7232	   0.0000	
 18.3186	   9.2981	   0.0000	
  9.7154	   8.5709	   0.0000	
  0.5665	   8.4753	   0.0000	
 88.5007	  50.0000	   0.0000	
 88.8047	  31.2762	   0.0000	
 74.4628	  20.1667	   0.0000	
 57.1603	  13.7006	   0.0000	
 42.2328	   8.8874	   0.0000	
 30.7661	   6.5564	   0.0000	
 19.6438	   5.2485	   0.0000	
  9.9817	   4.9112	   0.0000	
  2.8096	   3.0604	   0.0000	
