# vtk DataFile Version 3.0 
Results 
ASCII 
DATASET UNSTRUCTURED_GRID 
POINTS 	    1451 float 
  0.0000	   0.6000	  0.0000	 
  0.0000	   1.2000	  0.0000	 
  0.0000	   1.8000	  0.0000	 
  0.0000	   2.4000	  0.0000	 
  0.0000	   3.0000	  0.0000	 
  0.0000	   3.6000	  0.0000	 
  0.0000	   4.2000	  0.0000	 
  0.0000	   4.8000	  0.0000	 
  0.0000	   5.4000	  0.0000	 
  0.0000	   6.0000	  0.0000	 
  0.0000	   6.6000	  0.0000	 
  0.0000	   7.2000	  0.0000	 
  0.0000	   7.8000	  0.0000	 
  0.0000	   8.4000	  0.0000	 
  0.0000	   9.0000	  0.0000	 
  0.0000	   9.6000	  0.0000	 
  0.0000	  10.2000	  0.0000	 
  0.0000	  10.8000	  0.0000	 
  0.0000	  11.4000	  0.0000	 
  0.2250	   0.8475	  0.0000	 
  0.2250	   1.4200	  0.0000	 
  0.2250	   1.9925	  0.0000	 
  0.2250	   2.5650	  0.0000	 
  0.2250	   3.1375	  0.0000	 
  0.2250	   3.7100	  0.0000	 
  0.2250	   4.2825	  0.0000	 
  0.2250	   4.8550	  0.0000	 
  0.2250	   5.4275	  0.0000	 
  0.2250	   6.0000	  0.0000	 
  0.2250	   6.5725	  0.0000	 
  0.2250	   7.1450	  0.0000	 
  0.2250	   7.7175	  0.0000	 
  0.2250	   8.2900	  0.0000	 
  0.2250	   8.8625	  0.0000	 
  0.2250	   9.4350	  0.0000	 
  0.2250	  10.0075	  0.0000	 
  0.2250	  10.5800	  0.0000	 
  0.2250	  11.1525	  0.0000	 
  0.4500	   1.0950	  0.0000	 
  0.4500	   1.6400	  0.0000	 
  0.4500	   2.1850	  0.0000	 
  0.4500	   2.7300	  0.0000	 
  0.4500	   3.2750	  0.0000	 
  0.4500	   3.8200	  0.0000	 
  0.4500	   4.3650	  0.0000	 
  0.4500	   4.9100	  0.0000	 
  0.4500	   5.4550	  0.0000	 
  0.4500	   6.0000	  0.0000	 
  0.4500	   6.5450	  0.0000	 
  0.4500	   7.0900	  0.0000	 
  0.4500	   7.6350	  0.0000	 
  0.4500	   8.1800	  0.0000	 
  0.4500	   8.7250	  0.0000	 
  0.4500	   9.2700	  0.0000	 
  0.4500	   9.8150	  0.0000	 
  0.4500	  10.3600	  0.0000	 
  0.4500	  10.9050	  0.0000	 
  0.6750	   1.3425	  0.0000	 
  0.6750	   1.8600	  0.0000	 
  0.6750	   2.3775	  0.0000	 
  0.6750	   2.8950	  0.0000	 
  0.6750	   3.4125	  0.0000	 
  0.6750	   3.9300	  0.0000	 
  0.6750	   4.4475	  0.0000	 
  0.6750	   4.9650	  0.0000	 
  0.6750	   5.4825	  0.0000	 
  0.6750	   6.0000	  0.0000	 
  0.6750	   6.5175	  0.0000	 
  0.6750	   7.0350	  0.0000	 
  0.6750	   7.5525	  0.0000	 
  0.6750	   8.0700	  0.0000	 
  0.6750	   8.5875	  0.0000	 
  0.6750	   9.1050	  0.0000	 
  0.6750	   9.6225	  0.0000	 
  0.6750	  10.1400	  0.0000	 
  0.6750	  10.6575	  0.0000	 
  0.9000	   1.5900	  0.0000	 
  0.9000	   2.0800	  0.0000	 
  0.9000	   2.5700	  0.0000	 
  0.9000	   3.0600	  0.0000	 
  0.9000	   3.5500	  0.0000	 
  0.9000	   4.0400	  0.0000	 
  0.9000	   4.5300	  0.0000	 
  0.9000	   5.0200	  0.0000	 
  0.9000	   5.5100	  0.0000	 
  0.9000	   6.0000	  0.0000	 
  0.9000	   6.4900	  0.0000	 
  0.9000	   6.9800	  0.0000	 
  0.9000	   7.4700	  0.0000	 
  0.9000	   7.9600	  0.0000	 
  0.9000	   8.4500	  0.0000	 
  0.9000	   8.9400	  0.0000	 
  0.9000	   9.4300	  0.0000	 
  0.9000	   9.9200	  0.0000	 
  0.9000	  10.4100	  0.0000	 
  1.1250	   1.8375	  0.0000	 
  1.1250	   2.3000	  0.0000	 
  1.1250	   2.7625	  0.0000	 
  1.1250	   3.2250	  0.0000	 
  1.1250	   3.6875	  0.0000	 
  1.1250	   4.1500	  0.0000	 
  1.1250	   4.6125	  0.0000	 
  1.1250	   5.0750	  0.0000	 
  1.1250	   5.5375	  0.0000	 
  1.1250	   6.0000	  0.0000	 
  1.1250	   6.4625	  0.0000	 
  1.1250	   6.9250	  0.0000	 
  1.1250	   7.3875	  0.0000	 
  1.1250	   7.8500	  0.0000	 
  1.1250	   8.3125	  0.0000	 
  1.1250	   8.7750	  0.0000	 
  1.1250	   9.2375	  0.0000	 
  1.1250	   9.7000	  0.0000	 
  1.1250	  10.1625	  0.0000	 
  1.3500	   2.0850	  0.0000	 
  1.3500	   2.5200	  0.0000	 
  1.3500	   2.9550	  0.0000	 
  1.3500	   3.3900	  0.0000	 
  1.3500	   3.8250	  0.0000	 
  1.3500	   4.2600	  0.0000	 
  1.3500	   4.6950	  0.0000	 
  1.3500	   5.1300	  0.0000	 
  1.3500	   5.5650	  0.0000	 
  1.3500	   6.0000	  0.0000	 
  1.3500	   6.4350	  0.0000	 
  1.3500	   6.8700	  0.0000	 
  1.3500	   7.3050	  0.0000	 
  1.3500	   7.7400	  0.0000	 
  1.3500	   8.1750	  0.0000	 
  1.3500	   8.6100	  0.0000	 
  1.3500	   9.0450	  0.0000	 
  1.3500	   9.4800	  0.0000	 
  1.3500	   9.9150	  0.0000	 
  1.5750	   2.3325	  0.0000	 
  1.5750	   2.7400	  0.0000	 
  1.5750	   3.1475	  0.0000	 
  1.5750	   3.5550	  0.0000	 
  1.5750	   3.9625	  0.0000	 
  1.5750	   4.3700	  0.0000	 
  1.5750	   4.7775	  0.0000	 
  1.5750	   5.1850	  0.0000	 
  1.5750	   5.5925	  0.0000	 
  1.5750	   6.0000	  0.0000	 
  1.5750	   6.4075	  0.0000	 
  1.5750	   6.8150	  0.0000	 
  1.5750	   7.2225	  0.0000	 
  1.5750	   7.6300	  0.0000	 
  1.5750	   8.0375	  0.0000	 
  1.5750	   8.4450	  0.0000	 
  1.5750	   8.8525	  0.0000	 
  1.5750	   9.2600	  0.0000	 
  1.5750	   9.6675	  0.0000	 
  1.8000	   2.5800	  0.0000	 
  1.8000	   2.9600	  0.0000	 
  1.8000	   3.3400	  0.0000	 
  1.8000	   3.7200	  0.0000	 
  1.8000	   4.1000	  0.0000	 
  1.8000	   4.4800	  0.0000	 
  1.8000	   4.8600	  0.0000	 
  1.8000	   5.2400	  0.0000	 
  1.8000	   5.6200	  0.0000	 
  1.8000	   6.0000	  0.0000	 
  1.8000	   6.3800	  0.0000	 
  1.8000	   6.7600	  0.0000	 
  1.8000	   7.1400	  0.0000	 
  1.8000	   7.5200	  0.0000	 
  1.8000	   7.9000	  0.0000	 
  1.8000	   8.2800	  0.0000	 
  1.8000	   8.6600	  0.0000	 
  1.8000	   9.0400	  0.0000	 
  1.8000	   9.4200	  0.0000	 
  2.0250	   2.8275	  0.0000	 
  2.0250	   3.1800	  0.0000	 
  2.0250	   3.5325	  0.0000	 
  2.0250	   3.8850	  0.0000	 
  2.0250	   4.2375	  0.0000	 
  2.0250	   4.5900	  0.0000	 
  2.0250	   4.9425	  0.0000	 
  2.0250	   5.2950	  0.0000	 
  2.0250	   5.6475	  0.0000	 
  2.0250	   6.0000	  0.0000	 
  2.0250	   6.3525	  0.0000	 
  2.0250	   6.7050	  0.0000	 
  2.0250	   7.0575	  0.0000	 
  2.0250	   7.4100	  0.0000	 
  2.0250	   7.7625	  0.0000	 
  2.0250	   8.1150	  0.0000	 
  2.0250	   8.4675	  0.0000	 
  2.0250	   8.8200	  0.0000	 
  2.0250	   9.1725	  0.0000	 
  2.2500	   3.0750	  0.0000	 
  2.2500	   3.4000	  0.0000	 
  2.2500	   3.7250	  0.0000	 
  2.2500	   4.0500	  0.0000	 
  2.2500	   4.3750	  0.0000	 
  2.2500	   4.7000	  0.0000	 
  2.2500	   5.0250	  0.0000	 
  2.2500	   5.3500	  0.0000	 
  2.2500	   5.6750	  0.0000	 
  2.2500	   6.0000	  0.0000	 
  2.2500	   6.3250	  0.0000	 
  2.2500	   6.6500	  0.0000	 
  2.2500	   6.9750	  0.0000	 
  2.2500	   7.3000	  0.0000	 
  2.2500	   7.6250	  0.0000	 
  2.2500	   7.9500	  0.0000	 
  2.2500	   8.2750	  0.0000	 
  2.2500	   8.6000	  0.0000	 
  2.2500	   8.9250	  0.0000	 
  2.4750	   3.3225	  0.0000	 
  2.4750	   3.6200	  0.0000	 
  2.4750	   3.9175	  0.0000	 
  2.4750	   4.2150	  0.0000	 
  2.4750	   4.5125	  0.0000	 
  2.4750	   4.8100	  0.0000	 
  2.4750	   5.1075	  0.0000	 
  2.4750	   5.4050	  0.0000	 
  2.4750	   5.7025	  0.0000	 
  2.4750	   6.0000	  0.0000	 
  2.4750	   6.2975	  0.0000	 
  2.4750	   6.5950	  0.0000	 
  2.4750	   6.8925	  0.0000	 
  2.4750	   7.1900	  0.0000	 
  2.4750	   7.4875	  0.0000	 
  2.4750	   7.7850	  0.0000	 
  2.4750	   8.0825	  0.0000	 
  2.4750	   8.3800	  0.0000	 
  2.4750	   8.6775	  0.0000	 
  2.7000	   3.5700	  0.0000	 
  2.7000	   3.8400	  0.0000	 
  2.7000	   4.1100	  0.0000	 
  2.7000	   4.3800	  0.0000	 
  2.7000	   4.6500	  0.0000	 
  2.7000	   4.9200	  0.0000	 
  2.7000	   5.1900	  0.0000	 
  2.7000	   5.4600	  0.0000	 
  2.7000	   5.7300	  0.0000	 
  2.7000	   6.0000	  0.0000	 
  2.7000	   6.2700	  0.0000	 
  2.7000	   6.5400	  0.0000	 
  2.7000	   6.8100	  0.0000	 
  2.7000	   7.0800	  0.0000	 
  2.7000	   7.3500	  0.0000	 
  2.7000	   7.6200	  0.0000	 
  2.7000	   7.8900	  0.0000	 
  2.7000	   8.1600	  0.0000	 
  2.7000	   8.4300	  0.0000	 
  2.9250	   3.8175	  0.0000	 
  2.9250	   4.0600	  0.0000	 
  2.9250	   4.3025	  0.0000	 
  2.9250	   4.5450	  0.0000	 
  2.9250	   4.7875	  0.0000	 
  2.9250	   5.0300	  0.0000	 
  2.9250	   5.2725	  0.0000	 
  2.9250	   5.5150	  0.0000	 
  2.9250	   5.7575	  0.0000	 
  2.9250	   6.0000	  0.0000	 
  2.9250	   6.2425	  0.0000	 
  2.9250	   6.4850	  0.0000	 
  2.9250	   6.7275	  0.0000	 
  2.9250	   6.9700	  0.0000	 
  2.9250	   7.2125	  0.0000	 
  2.9250	   7.4550	  0.0000	 
  2.9250	   7.6975	  0.0000	 
  2.9250	   7.9400	  0.0000	 
  2.9250	   8.1825	  0.0000	 
  3.1500	   4.0650	  0.0000	 
  3.1500	   4.2800	  0.0000	 
  3.1500	   4.4950	  0.0000	 
  3.1500	   4.7100	  0.0000	 
  3.1500	   4.9250	  0.0000	 
  3.1500	   5.1400	  0.0000	 
  3.1500	   5.3550	  0.0000	 
  3.1500	   5.5700	  0.0000	 
  3.1500	   5.7850	  0.0000	 
  3.1500	   6.0000	  0.0000	 
  3.1500	   6.2150	  0.0000	 
  3.1500	   6.4300	  0.0000	 
  3.1500	   6.6450	  0.0000	 
  3.1500	   6.8600	  0.0000	 
  3.1500	   7.0750	  0.0000	 
  3.1500	   7.2900	  0.0000	 
  3.1500	   7.5050	  0.0000	 
  3.1500	   7.7200	  0.0000	 
  3.1500	   7.9350	  0.0000	 
  3.3750	   4.3125	  0.0000	 
  3.3750	   4.5000	  0.0000	 
  3.3750	   4.6875	  0.0000	 
  3.3750	   4.8750	  0.0000	 
  3.3750	   5.0625	  0.0000	 
  3.3750	   5.2500	  0.0000	 
  3.3750	   5.4375	  0.0000	 
  3.3750	   5.6250	  0.0000	 
  3.3750	   5.8125	  0.0000	 
  3.3750	   6.0000	  0.0000	 
  3.3750	   6.1875	  0.0000	 
  3.3750	   6.3750	  0.0000	 
  3.3750	   6.5625	  0.0000	 
  3.3750	   6.7500	  0.0000	 
  3.3750	   6.9375	  0.0000	 
  3.3750	   7.1250	  0.0000	 
  3.3750	   7.3125	  0.0000	 
  3.3750	   7.5000	  0.0000	 
  3.3750	   7.6875	  0.0000	 
  3.6000	   4.5600	  0.0000	 
  3.6000	   4.7200	  0.0000	 
  3.6000	   4.8800	  0.0000	 
  3.6000	   5.0400	  0.0000	 
  3.6000	   5.2000	  0.0000	 
  3.6000	   5.3600	  0.0000	 
  3.6000	   5.5200	  0.0000	 
  3.6000	   5.6800	  0.0000	 
  3.6000	   5.8400	  0.0000	 
  3.6000	   6.0000	  0.0000	 
  3.6000	   6.1600	  0.0000	 
  3.6000	   6.3200	  0.0000	 
  3.6000	   6.4800	  0.0000	 
  3.6000	   6.6400	  0.0000	 
  3.6000	   6.8000	  0.0000	 
  3.6000	   6.9600	  0.0000	 
  3.6000	   7.1200	  0.0000	 
  3.6000	   7.2800	  0.0000	 
  3.6000	   7.4400	  0.0000	 
  3.8250	   4.8075	  0.0000	 
  3.8250	   4.9400	  0.0000	 
  3.8250	   5.0725	  0.0000	 
  3.8250	   5.2050	  0.0000	 
  3.8250	   5.3375	  0.0000	 
  3.8250	   5.4700	  0.0000	 
  3.8250	   5.6025	  0.0000	 
[...]
POINT_DATA 	    1451 
VECTORS U float 
 50.0000	   0.0000	   0.0000	
 50.0000	   0.0000	   0.0000	
 50.0000	   0.0000	   0.0000	
 50.0000	   0.0000	   0.0000	
 50.0000	  -0.0000	   0.0000	
 50.0000	  -0.0000	   0.0000	
 50.0000	   0.0000	   0.0000	
 50.0000	  -0.0000	   0.0000	
 50.0000	  -0.0000	   0.0000	
 50.0000	   0.0000	   0.0000	
 50.0000	  -0.0000	   0.0000	
 50.0000	  -0.0000	   0.0000	
 50.0000	   0.0000	   0.0000	
 50.0000	   0.0000	   0.0000	
 50.0000	  -0.0000	   0.0000	
 50.0000	  -0.0000	   0.0000	
 50.0000	   0.0000	   0.0000	
 50.0000	   0.0000	   0.0000	
 50.0000	  -0.0000	   0.0000	
 49.0686	   6.2129	   0.0000	
 50.3794	   8.2747	   0.0000	
 50.2099	  12.7564	   0.0000	
 49.7893	  19.2220	   0.0000	
 50.1212	  11.6466	   0.0000	
 49.4833	  23.2030	   0.0000	
 49.2544	  28.2823	   0.0000	
 49.0980	  34.8948	   0.0000	
 49.7811	  38.3654	   0.0000	
 50.1109	  40.0098	   0.0000	
 49.6128	  39.3285	   0.0000	
 50.9602	  38.6812	   0.0000	
 50.4053	  32.6193	   0.0000	
 50.6702	  28.6109	   0.0000	
 50.1871	  26.2950	   0.0000	
 50.0141	  18.1714	   0.0000	
 50.1639	  20.8713	   0.0000	
 49.1299	  18.4709	   0.0000	
 50.5863	  17.5699	   0.0000	
 48.7167	  12.6262	   0.0000	
 45.8731	  22.0598	   0.0000	
 45.0679	  34.6165	   0.0000	
 55.8796	  25.5614	   0.0000	
 41.7547	  39.0340	   0.0000	
 45.9953	  42.4151	   0.0000	
 44.9251	  55.1698	   0.0000	
 46.7502	  63.6199	   0.0000	
 48.4463	  67.6722	   0.0000	
 49.0744	  69.9666	   0.0000	
 50.4450	  71.7146	   0.0000	
 51.1318	  70.8535	   0.0000	
 55.0036	  66.8599	   0.0000	
 53.6348	  52.5211	   0.0000	
 50.4839	  50.9462	   0.0000	
 56.0922	  48.0449	   0.0000	
 47.7075	  36.5863	   0.0000	
 52.3872	  38.9123	   0.0000	
 51.2315	  37.1020	   0.0000	
 42.1858	  22.6704	   0.0000	
 39.8530	  46.4512	   0.0000	
 54.3204	  37.9229	   0.0000	
 45.1247	  52.3483	   0.0000	
 43.9913	  51.1684	   0.0000	
 40.1004	  61.5730	   0.0000	
 41.9564	  68.6065	   0.0000	
 45.4935	  70.7642	   0.0000	
 47.6973	  72.9008	   0.0000	
 47.6337	  75.5495	   0.0000	
 49.7240	  79.8455	   0.0000	
 50.9478	  80.6763	   0.0000	
 55.2229	  84.3162	   0.0000	
 61.1091	  81.6783	   0.0000	
 51.5428	  68.9828	   0.0000	
 54.1781	  68.8850	   0.0000	
 57.1920	  66.8105	   0.0000	
 49.0529	  55.5378	   0.0000	
 49.8752	  55.3549	   0.0000	
 23.9058	  48.1361	   0.0000	
 50.5190	  46.8548	   0.0000	
 46.0658	  59.7216	   0.0000	
 43.5483	  63.7982	   0.0000	
 39.1517	  63.3218	   0.0000	
 38.6232	  64.7434	   0.0000	
 41.6055	  65.5686	   0.0000	
 44.9655	  68.1046	   0.0000	
 46.7226	  69.9258	   0.0000	
 47.1184	  71.4668	   0.0000	
 47.5839	  71.8770	   0.0000	
 50.0169	  76.9836	   0.0000	
 52.7222	  77.5659	   0.0000	
 59.7719	  81.3848	   0.0000	
 59.4023	  85.0251	   0.0000	
 51.9321	  81.4815	   0.0000	
 58.6204	  85.1108	   0.0000	
 54.8923	  82.2468	   0.0000	
 53.4718	  70.0381	   0.0000	
 40.5714	  51.1252	   0.0000	
 43.0916	  66.7012	   0.0000	
 41.1475	  71.1510	   0.0000	
 45.2432	  71.8680	   0.0000	
 38.6433	  67.5470	   0.0000	
 39.0346	  65.7678	   0.0000	
 40.9749	  67.7516	   0.0000	
 44.4388	  68.9963	   0.0000	
 45.7740	  71.0280	   0.0000	
 46.1083	  73.0090	   0.0000	
 47.8838	  74.8712	   0.0000	
 47.3004	  73.8683	   0.0000	
 51.9527	  79.5901	   0.0000	
 57.1155	  78.4746	   0.0000	
 57.5332	  84.0089	   0.0000	
 52.2422	  93.0373	   0.0000	
 53.4617	  92.6924	   0.0000	
 58.6478	  98.7021	   0.0000	
 60.3401	  99.6053	   0.0000	
 36.6188	  70.1471	   0.0000	
 41.9510	  76.3444	   0.0000	
 42.7328	  72.7192	   0.0000	
 45.7513	  73.9382	   0.0000	
 39.7191	  68.3609	   0.0000	
 38.7877	  68.6137	   0.0000	
 41.3070	  68.6546	   0.0000	
 43.5914	  70.7737	   0.0000	
 45.0264	  72.8230	   0.0000	
 44.7661	  75.2535	   0.0000	
 46.7642	  78.1968	   0.0000	
 47.8534	  79.9219	   0.0000	
 47.8709	  79.3408	   0.0000	
 56.3197	  84.7728	   0.0000	
 55.0257	  85.7481	   0.0000	
 48.7620	  94.0945	   0.0000	
 51.9589	  99.0655	   0.0000	
 52.8077	 103.4138	   0.0000	
 53.3006	 115.1023	   0.0000	
 37.8105	  63.6212	   0.0000	
 44.4621	  64.9966	   0.0000	
 43.1696	  63.8535	   0.0000	
 45.5591	  66.3411	   0.0000	
 38.9043	  65.3342	   0.0000	
 39.4341	  64.5426	   0.0000	
 40.2979	  66.8810	   0.0000	
 42.6265	  69.7186	   0.0000	
 43.5263	  72.4572	   0.0000	
 44.0563	  73.9425	   0.0000	
 45.3518	  74.7696	   0.0000	
 46.5454	  77.5204	   0.0000	
 48.3671	  79.3007	   0.0000	
 51.3807	  76.8338	   0.0000	
 55.2396	  83.9857	   0.0000	
 48.1496	  85.6792	   0.0000	
 47.8914	  86.2390	   0.0000	
 50.4101	  90.7758	   0.0000	
 45.7950	  99.3739	   0.0000	
 40.9077	  59.7488	   0.0000	
 44.3469	  63.1498	   0.0000	
 42.3669	  63.2616	   0.0000	
 43.0072	  69.2854	   0.0000	
 39.4849	  66.0912	   0.0000	
 38.2384	  67.4646	   0.0000	
 39.2188	  69.8435	   0.0000	
 41.2763	  72.2657	   0.0000	
 42.7506	  74.0053	   0.0000	
 42.7297	  76.1925	   0.0000	
 44.9843	  78.4621	   0.0000	
 44.7979	  78.5177	   0.0000	
 46.9028	  81.6944	   0.0000	
 52.4285	  81.6410	   0.0000	
 50.1110	  80.2669	   0.0000	
 50.4454	  89.4011	   0.0000	
 48.4594	  85.4720	   0.0000	
 46.9469	  85.2437	   0.0000	
 43.7823	  94.0437	   0.0000	
 41.3855	  58.7724	   0.0000	
 42.7036	  62.6868	   0.0000	
 39.0327	  65.0614	   0.0000	
 43.4689	  67.1456	   0.0000	
 37.9829	  66.4771	   0.0000	
 37.2760	  67.8712	   0.0000	
 38.1838	  69.7515	   0.0000	
 40.4071	  71.8560	   0.0000	
 41.2410	  74.5527	   0.0000	
 41.3638	  76.8613	   0.0000	
 43.6425	  78.8960	   0.0000	
 44.7969	  80.8245	   0.0000	
 44.4977	  80.9509	   0.0000	
 50.8575	  82.4609	   0.0000	
 52.2606	  83.6914	   0.0000	
 44.6583	  84.3999	   0.0000	
 51.3679	  89.7445	   0.0000	
 48.9459	  87.0256	   0.0000	
 40.3049	  91.1475	   0.0000	
 39.7247	  59.4345	   0.0000	
 38.9814	  64.3916	   0.0000	
 40.3388	  63.4620	   0.0000	
 41.1053	  67.4542	   0.0000	
 36.5754	  67.2887	   0.0000	
 36.3430	  68.4850	   0.0000	
 37.1876	  70.5051	   0.0000	
 38.6546	  73.5734	   0.0000	
 39.7456	  76.1549	   0.0000	
 40.1717	  77.7392	   0.0000	
 42.5379	  79.0069	   0.0000	
 43.2120	  80.0910	   0.0000	
 44.6352	  82.0428	   0.0000	
 48.2803	  79.6879	   0.0000	
 50.8570	  82.2093	   0.0000	
 48.5192	  84.8350	   0.0000	
 43.3492	  83.1688	   0.0000	
 52.2375	  88.3022	   0.0000	
 44.5815	  89.4731	   0.0000	
 36.0482	  61.9591	   0.0000	
 40.9413	  62.9734	   0.0000	
 37.6787	  63.4527	   0.0000	
 38.8834	  67.5486	   0.0000	
 35.3999	  67.2752	   0.0000	
 35.1538	  68.9485	   0.0000	
 35.4724	  71.2333	   0.0000	
 37.0124	  73.5502	   0.0000	
 38.5366	  75.4898	   0.0000	
 38.2833	  78.0613	   0.0000	
 41.9157	  80.6514	   0.0000	
 42.3328	  81.0601	   0.0000	
 43.2551	  82.2196	   0.0000	
 48.9618	  81.6528	   0.0000	
 47.9352	  81.0884	   0.0000	
 48.1483	  85.4774	   0.0000	
 47.0177	  86.7034	   0.0000	
 42.8279	  86.2009	   0.0000	
 49.4181	  92.5157	   0.0000	
 39.7774	  60.9220	   0.0000	
 37.7282	  63.5549	   0.0000	
 35.4692	  65.3069	   0.0000	
 36.7554	  68.6262	   0.0000	
 33.9641	  69.0967	   0.0000	
 33.6010	  70.8006	   0.0000	
 34.1734	  72.7022	   0.0000	
 35.7889	  74.7616	   0.0000	
 36.3569	  77.7484	   0.0000	
 35.9540	  80.7990	   0.0000	
 39.5921	  83.4712	   0.0000	
 41.9301	  85.6486	   0.0000	
 42.4447	  85.7840	   0.0000	
 47.2067	  84.2716	   0.0000	
 48.7416	  85.9160	   0.0000	
 44.4460	  87.7046	   0.0000	
 45.7104	  92.0964	   0.0000	
 48.2239	  90.5802	   0.0000	
 38.6414	  90.3495	   0.0000	
 35.7784	  57.6463	   0.0000	
 33.2391	  60.0019	   0.0000	
 33.3777	  63.0779	   0.0000	
 34.0569	  67.7741	   0.0000	
 31.7644	  69.7548	   0.0000	
 32.3676	  71.7129	   0.0000	
 32.3376	  73.9487	   0.0000	
 33.0924	  77.6462	   0.0000	
 33.3346	  81.6372	   0.0000	
 36.3082	  81.2487	   0.0000	
 37.7920	  80.2757	   0.0000	
 39.2911	  82.0178	   0.0000	
 42.5885	  84.5227	   0.0000	
 46.8781	  82.4146	   0.0000	
 45.9586	  84.1007	   0.0000	
 45.6618	  87.6416	   0.0000	
 40.9862	  89.1819	   0.0000	
 49.6483	  85.9700	   0.0000	
 50.3034	  79.3839	   0.0000	
 31.0972	  60.0140	   0.0000	
 29.4497	  61.8467	   0.0000	
 29.0162	  65.6774	   0.0000	
 30.7520	  69.0038	   0.0000	
 29.6100	  70.4171	   0.0000	
 30.0225	  73.0718	   0.0000	
 29.2569	  75.8069	   0.0000	
 29.1286	  78.8782	   0.0000	
 34.1825	  78.6540	   0.0000	
 32.6681	  81.1653	   0.0000	
 39.4141	  85.1319	   0.0000	
 36.8220	  83.1290	   0.0000	
 39.6313	  84.7606	   0.0000	
 46.6035	  84.2726	   0.0000	
 43.3210	  87.1858	   0.0000	
 42.5669	  91.4669	   0.0000	
 43.2682	  94.0064	   0.0000	
 47.8145	  86.3167	   0.0000	
 56.3525	  78.0779	   0.0000	
 26.5192	  58.2459	   0.0000	
 23.1138	  64.4863	   0.0000	
 27.1731	  68.6364	   0.0000	
 28.4348	  72.2635	   0.0000	
 27.0201	  74.0980	   0.0000	
 27.2607	  76.1208	   0.0000	
 26.8915	  77.1119	   0.0000	
 31.9567	  74.9999	   0.0000	
 31.8640	  76.0150	   0.0000	
 26.1198	  81.5945	   0.0000	
 33.8227	  87.4800	   0.0000	
 39.3939	  91.4908	   0.0000	
 38.4641	  89.6148	   0.0000	
 41.1251	  90.6547	   0.0000	
 41.6683	  97.9278	   0.0000	
 37.6546	 102.8481	   0.0000	
 42.1676	 101.0043	   0.0000	
 55.8988	  90.2248	   0.0000	
 55.3426	  79.1131	   0.0000	
 19.6946	  54.6914	   0.0000	
 22.6874	  58.4148	   0.0000	
 13.8325	  67.5509	   0.0000	
 22.7779	  80.0119	   0.0000	
 24.3653	  84.9080	   0.0000	
 26.6034	  86.9681	   0.0000	
 32.1295	  85.2443	   0.0000	
 30.9684	  85.6217	   0.0000	
 23.1239	  92.0707	   0.0000	
 29.3694	  90.1403	   0.0000	
 25.9175	  87.5703	   0.0000	
 30.6456	  94.4183	   0.0000	
 41.7256	  99.4630	   0.0000	
 36.3120	  97.5887	   0.0000	
 30.9940	 104.9310	   0.0000	
 35.5463	 107.3819	   0.0000	
 51.0302	  96.3229	   0.0000	
 49.1200	  85.6987	   0.0000	
 66.2480	  72.7981	   0.0000	
  4.0264	  48.0006	   0.0000	
 -0.6210	  55.3828	   0.0000	
 13.0151	  63.5260	   0.0000	
 16.3218	  69.6293	   0.0000	
 22.5771	  73.8996	   0.0000	
 32.9123	  74.6328	   0.0000	
 30.5552	  74.6776	   0.0000	
 17.5418	  79.5341	   0.0000	
 26.6649	  79.2933	   0.0000	
 20.5171	  83.3736	   0.0000	
 30.5714	  89.5634	   0.0000	
 16.4015	  88.5706	   0.0000	
 26.1314	  97.2394	   0.0000	
 43.3145	 101.1794	   0.0000	
 22.6326	 110.5386	   0.0000	
 32.6044	 116.2389	   0.0000	
 36.0880	 108.9137	   0.0000	
 64.8936	 101.4263	   0.0000	
 73.2229	  84.7382	   0.0000	
 -3.5726	  59.6318	   0.0000	
  4.1016	  68.3170	   0.0000	
  9.0390	  74.4883	   0.0000	
 23.8523	  79.4769	   0.0000	
 33.0941	  83.4381	   0.0000	
 26.4065	  82.5434	   0.0000	
 11.3317	  90.5213	   0.0000	
 20.3491	  94.2348	   0.0000	
 17.2297	 100.4345	   0.0000	
 13.2283	 105.2776	   0.0000	
 15.4600	 109.4475	   0.0000	
 21.4134	 117.4548	   0.0000	
  2.6590	 122.2668	   0.0000	
 20.0015	 128.0858	   0.0000	
 14.6356	 142.6363	   0.0000	
  7.4745	 154.1627	   0.0000	
 26.8631	 147.5723	   0.0000	
 58.5252	 128.9924	   0.0000	
 69.2711	 103.3506	   0.0000	
 -2.7134	  32.1834	   0.0000	
  4.2927	  38.2739	   0.0000	
 15.7541	  45.6688	   0.0000	
 25.6368	  53.6615	   0.0000	
  0.4878	  62.2668	   0.0000	
  0.4489	  63.0090	   0.0000	
  8.3939	  67.2182	   0.0000	
  0.5157	  71.0905	   0.0000	
  6.6608	  74.6595	   0.0000	
  0.3861	  77.6811	   0.0000	
  6.2214	  80.6744	   0.0000	
  0.5010	  83.9180	   0.0000	
  6.7703	  87.1691	   0.0000	
 -0.8801	  89.8887	   0.0000	
 -0.4903	  89.0394	   0.0000	
 -6.3347	  93.8861	   0.0000	
 -0.1059	  91.9816	   0.0000	
 22.1305	  88.1579	   0.0000	
 59.2341	  77.6436	   0.0000	
 -0.0000	  -0.0000	   0.0000	
  0.0000	   0.0000	   0.0000	
 -0.0000	   0.0000	   0.0000	
 -0.0000	   0.0000	   0.0000	
  0.0000	  -0.0000	   0.0000	
 -0.0000	   0.0000	   0.0000	
  0.0000	   0.0000	   0.0000	
  0.0000	  -0.0000	   0.0000	
 -0.0000	  -0.0000	   0.0000	
  0.0000	   0.0000	   0.0000	
  0.0000	   0.0000	   0.0000	
  0.0000	  -0.0000	   0.0000	
 -0.0000	   0.0000	   0.0000	
 -0.0000	   0.0000	   0.0000	
 -0.0000	  -0.0000	   0.0000	
 -0.0000	  -0.0000	   0.0000	
  0.0000	  -0.0000	   0.0000	
 -0.0000	  -0.0000	   0.0000	
  0.0000	   0.0000	   0.0000	
 50.0000	  50.0000	   0.0000	
 50.0000	  -0.0000	   0.0000	
 68.4961	  50.0595	   0.0000	
 49.9843	  16.4164	   0.0000	
 86.5568	  49.9898	   0.0000	
 50.3709	  33.0867	   0.0000	
 82.0139	  55.2393	   0.0000	
 53.8610	  50.2277	   0.0000	
 78.4441	  60.0740	   0.0000	
 56.5000	  67.4951	   0.0000	
 49.3360	  80.0493	   0.0000	
 50.8941	  79.6354	   0.0000	
 48.9658	  77.3342	   0.0000	
 76.5318	 103.9581	   0.0000	
 44.8979	  76.0908	   0.0000	
 66.9243	  93.1917	   0.0000	
 47.0918	  71.3230	   0.0000	
 56.0128	  83.2649	   0.0000	
 48.9635	  67.4303	   0.0000	
 54.8381	  79.9972	   0.0000	
 47.8972	  65.5687	   0.0000	
 51.2946	  75.8797	   0.0000	
 43.9628	  65.1079	   0.0000	
 56.4500	  76.8390	   0.0000	
 38.7680	  64.4840	   0.0000	
 62.9419	  77.2537	   0.0000	
 41.3992	  58.9928	   0.0000	
 49.2090	  67.7805	   0.0000	
 34.5134	  57.3235	   0.0000	
 59.4425	  69.2566	   0.0000	
 27.7298	  54.9069	   0.0000	
 65.8254	  67.9400	   0.0000	
 17.6071	  52.6647	   0.0000	
 68.7225	  63.7615	   0.0000	
 18.0807	  41.7371	   0.0000	
 78.2346	  60.3512	   0.0000	
-17.6166	  48.5430	   0.0000	
108.7906	  67.7234	   0.0000	
-10.7335	  24.8697	   0.0000	
110.0873	  50.6224	   0.0000	
 -0.0000	   0.0000	   0.0000	
 -0.0000	  -0.0000	   0.0000	
 50.5118	  50.0000	   0.0000	
 88.4286	 157.9019	   0.0000	
 47.3592	  49.5460	   0.0000	
 52.4360	 140.3089	   0.0000	
 45.4994	  49.1358	   0.0000	
 35.2890	 124.5806	   0.0000	
 45.2031	  47.7367	   0.0000	
 23.8435	 111.1202	   0.0000	
 43.1884	  47.3634	   0.0000	
 24.6184	 105.4051	   0.0000	
 44.0148	  45.9709	   0.0000	
 23.4898	 100.5280	   0.0000	
 43.6460	  45.7297	   0.0000	
 25.1973	  97.3901	   0.0000	
 44.5692	  44.6917	   0.0000	
 24.5614	  93.3197	   0.0000	
 43.4107	  44.2784	   0.0000	
 27.2174	  90.1138	   0.0000	
 40.2670	  44.5984	   0.0000	
 30.4181	  86.8060	   0.0000	
 40.5098	  43.1830	   0.0000	
 35.7380	  84.2398	   0.0000	
 45.9575	  39.9339	   0.0000	
 26.8090	  76.3366	   0.0000	
 40.7921	  40.2776	   0.0000	
 35.3842	  74.8801	   0.0000	
 40.8662	  37.4014	   0.0000	
 37.7284	  69.7505	   0.0000	
 38.9379	  33.4770	   0.0000	
 39.1479	  63.7053	   0.0000	
 41.1922	  27.9423	   0.0000	
 44.2022	  55.6546	   0.0000	
 24.8708	  26.8019	   0.0000	
 62.1345	  50.5923	   0.0000	
 18.6097	  19.7111	   0.0000	
 68.9016	  39.1380	   0.0000	
 36.8302	   2.8098	   0.0000	
 62.1050	  21.9262	   0.0000	
 26.2897	   0.4863	   0.0000	
 -2.5785	  -1.7120	   0.0000	
 -0.0000	   0.0000	   0.0000	
 -0.0000	  -0.0000	   0.0000	
 54.8427	  50.0000	   0.0000	
-44.7429	  66.8948	   0.0000	
 51.2496	  50.7481	   0.0000	
-12.8450	  68.5316	   0.0000	
 48.8090	  51.0911	   0.0000	
  2.3580	  68.4781	   0.0000	
 46.3403	  52.0213	   0.0000	
  9.9009	  68.1389	   0.0000	
 46.7615	  52.2612	   0.0000	
 11.8854	  66.8239	   0.0000	
 47.0719	  52.7600	   0.0000	
 11.9382	  65.5775	   0.0000	
 46.7444	  53.5554	   0.0000	
 13.4275	  64.1935	   0.0000	
 46.5906	  53.4699	   0.0000	
 15.2676	  62.4207	   0.0000	
 46.0646	  54.3158	   0.0000	
 16.9363	  60.9357	   0.0000	
 45.0478	  54.9589	   0.0000	
 19.9889	  59.8751	   0.0000	
 50.1034	  54.7175	   0.0000	
 15.3282	  58.1774	   0.0000	
 50.2979	  55.2054	   0.0000	
 17.0358	  55.6572	   0.0000	
 54.7764	  55.3322	   0.0000	
 17.4213	  53.0500	   0.0000	
 56.8518	  56.1107	   0.0000	
  8.7594	  49.5892	   0.0000	
 60.0310	  56.4758	   0.0000	
 12.5455	  46.9670	   0.0000	
 62.1539	  54.0270	   0.0000	
 15.8667	  40.9990	   0.0000	
 60.9725	  52.9455	   0.0000	
 21.2649	  36.5461	   0.0000	
 67.2189	  53.2201	   0.0000	
 25.5701	  32.5631	   0.0000	
 64.6031	  52.1258	   0.0000	
  0.0865	  32.5874	   0.0000	
 39.3024	  51.7976	   0.0000	
  1.0497	  38.0703	   0.0000	
 29.0098	  49.2609	   0.0000	
 -0.3994	  40.7989	   0.0000	
 44.7721	  50.0000	   0.0000	
 11.4595	  54.2209	   0.0000	
 44.9526	  50.7173	   0.0000	
 -2.3865	  59.4226	   0.0000	
 43.0261	  50.9008	   0.0000	
  1.6535	  60.0013	   0.0000	
 41.1806	  50.8615	   0.0000	
  5.1762	  59.4831	   0.0000	
 41.4812	  51.3739	   0.0000	
  6.4035	  59.4097	   0.0000	
 41.9505	  51.8849	   0.0000	
  6.9544	  59.5193	   0.0000	
 40.3948	  51.9710	   0.0000	
 10.2202	  58.7414	   0.0000	
 40.9244	  52.8061	   0.0000	
  8.8413	  59.7134	   0.0000	
 42.2606	  53.4299	   0.0000	
 11.0423	  58.9940	   0.0000	
 41.4079	  54.0494	   0.0000	
 12.9669	  58.7042	   0.0000	
 43.5813	  55.3303	   0.0000	
 14.0340	  58.9666	   0.0000	
 42.6579	  55.9552	   0.0000	
 13.3553	  58.8217	   0.0000	
 43.4885	  57.8162	   0.0000	
  8.7037	  60.6477	   0.0000	
 45.7056	  60.2762	   0.0000	
 11.9599	  61.3352	   0.0000	
 45.0461	  61.7098	   0.0000	
 10.8790	  61.6098	   0.0000	
 51.8295	  66.7267	   0.0000	
  6.6242	  63.9917	   0.0000	
 49.5108	  69.5743	   0.0000	
  9.3939	  63.7371	   0.0000	
 48.6876	  73.5514	   0.0000	
 14.2236	  62.8476	   0.0000	
 50.7056	  77.9410	   0.0000	
 19.7284	  60.4383	   0.0000	
 41.9150	  83.6111	   0.0000	
 19.7899	  67.1649	   0.0000	
 21.4668	  84.6469	   0.0000	
 22.3484	  71.6720	   0.0000	
 44.4955	  50.0000	   0.0000	
 -1.4053	  45.6809	   0.0000	
 44.4355	  49.8905	   0.0000	
  2.3587	  44.8442	   0.0000	
 43.7114	  50.0104	   0.0000	
  5.0100	  44.0967	   0.0000	
 42.5028	  49.7305	   0.0000	
  7.9492	  43.2818	   0.0000	
 42.6933	  49.9848	   0.0000	
  6.8065	  44.8311	   0.0000	
 42.6026	  49.9383	   0.0000	
  5.5417	  46.8375	   0.0000	
 41.4957	  49.4408	   0.0000	
  7.0002	  47.1320	   0.0000	
 41.4225	  49.5500	   0.0000	
  7.7850	  48.2116	   0.0000	
 40.8393	  49.5434	   0.0000	
  9.9778	  48.3481	   0.0000	
 39.6104	  48.9550	   0.0000	
 11.2592	  48.7233	   0.0000	
 41.4147	  50.1038	   0.0000	
  9.6121	  50.6290	   0.0000	
 38.0068	  49.0190	   0.0000	
 14.8590	  49.1573	   0.0000	
 39.4246	  50.5724	   0.0000	
 15.0413	  50.1277	   0.0000	
 38.8763	  50.9407	   0.0000	
 13.6134	  51.6390	   0.0000	
 39.3093	  52.6152	   0.0000	
 14.8275	  53.3677	   0.0000	
 38.3728	  53.3046	   0.0000	
 14.9440	  54.3918	   0.0000	
 37.5543	  55.3872	   0.0000	
 15.1697	  56.7833	   0.0000	
 39.1213	  59.9813	   0.0000	
 14.3168	  60.3283	   0.0000	
 34.7164	  61.8040	   0.0000	
 21.7662	  60.3929	   0.0000	
 40.1484	  68.0790	   0.0000	
 16.9412	  64.1200	   0.0000	
 18.5407	  66.0208	   0.0000	
 38.5383	  58.0257	   0.0000	
 50.8652	  50.0000	   0.0000	
  0.6986	  30.4621	   0.0000	
 48.1781	  49.4005	   0.0000	
  2.1013	  31.8809	   0.0000	
 45.2313	  48.7381	   0.0000	
  3.4716	  33.3096	   0.0000	
 44.4173	  48.6437	   0.0000	
  4.6981	  34.7450	   0.0000	
 45.4615	  49.1702	   0.0000	
  7.1031	  35.7666	   0.0000	
 45.2987	  49.1887	   0.0000	
  7.8565	  37.6835	   0.0000	
 42.0241	  46.9871	   0.0000	
  8.7244	  38.8667	   0.0000	
 41.5959	  47.1812	   0.0000	
 10.0220	  39.0653	   0.0000	
 41.4971	  47.7719	   0.0000	
 10.7023	  39.8179	   0.0000	
 40.2730	  47.8699	   0.0000	
 12.1265	  41.0786	   0.0000	
 39.9341	  48.1566	   0.0000	
 13.5727	  42.2874	   0.0000	
 38.7387	  48.1761	   0.0000	
 15.0686	  43.2011	   0.0000	
 38.4967	  48.8045	   0.0000	
 15.5343	  45.1311	   0.0000	
 37.8674	  49.5678	   0.0000	
 15.5924	  47.1816	   0.0000	
 37.6996	  49.1233	   0.0000	
 16.2924	  47.0787	   0.0000	
 36.1596	  49.4275	   0.0000	
 16.7575	  47.9776	   0.0000	
 34.5981	  49.3866	   0.0000	
 22.5625	  46.6677	   0.0000	
 36.4194	  52.0357	   0.0000	
 18.2140	  51.8715	   0.0000	
 33.1435	  51.2906	   0.0000	
 21.9697	  51.9973	   0.0000	
 30.3624	  51.3944	   0.0000	
 23.7304	  53.6517	   0.0000	
 29.9675	  55.3805	   0.0000	
 21.0009	  57.2754	   0.0000	
  0.0000	   0.0000	   0.0000	
  0.0000	   0.0000	   0.0000	
 -0.0000	   0.0000	   0.0000	
  0.0000	  -0.0000	   0.0000	
 -0.0000	   0.0000	   0.0000	
  0.0000	   0.0000	   0.0000	
 -0.0000	   0.0000	   0.0000	
 -0.0000	  -0.0000	   0.0000	
 -0.0000	  -0.0000	   0.0000	
 -0.0000	   0.0000	   0.0000	
 -0.0000	  -0.0000	   0.0000	
 -0.0000	  -0.0000	   0.0000	
 -0.0000	   0.0000	   0.0000	
 -0.0000	  -0.0000	   0.0000	