# vtk DataFile Version 3.0 
Results 
ASCII 
DATASET UNSTRUCTURED_GRID 
POINTS 	    1451 float 
  0.0000	   0.6000	  0.0000	 
  0.0000	   1.2000	  0.0000	 
  0.0000	   1.8000	  0.0000	 
  0.0000	   2.4000	  0.0000	 
  0.0000	   3.0000	  0.0000	 
  0.0000	   3.6000	  0.0000	 
  0.0000	   4.2000	  0.0000	 
  0.0000	   4.8000	  0.0000	 
  0.0000	   5.4000	  0.0000	 
  0.0000	   6.0000	  0.0000	 
  0.0000	   6.6000	  0.0000	 
  0.0000	   7.2000	  0.0000	 
  0.0000	   7.8000	  0.0000	 
  0.0000	   8.4000	  0.0000	 
  0.0000	   9.0000	  0.0000	 
  0.0000	   9.6000	  0.0000	 
  0.0000	  10.2000	  0.0000	 
  0.0000	  10.8000	  0.0000	 
  0.0000	  11.4000	  0.0000	 
  0.2250	   0.8475	  0.0000	 
  0.2250	   1.4200	  0.0000	 
  0.2250	   1.9925	  0.0000	 
  0.2250	   2.5650	  0.0000	 
  0.2250	   3.1375	  0.0000	 
  0.2250	   3.7100	  0.0000	 
  0.2250	   4.2825	  0.0000	 
  0.2250	   4.8550	  0.0000	 
  0.2250	   5.4275	  0.0000	 
  0.2250	   6.0000	  0.0000	 
  0.2250	   6.5725	  0.0000	 
  0.2250	   7.1450	  0.0000	 
  0.2250	   7.7175	  0.0000	 
  0.2250	   8.2900	  0.0000	 
  0.2250	   8.8625	  0.0000	 
  0.2250	   9.4350	  0.0000	 
  0.2250	  10.0075	  0.0000	 
  0.2250	  10.5800	  0.0000	 
  0.2250	  11.1525	  0.0000	 
  0.4500	   1.0950	  0.0000	 
  0.4500	   1.6400	  0.0000	 
  0.4500	   2.1850	  0.0000	 
  0.4500	   2.7300	  0.0000	 
  0.4500	   3.2750	  0.0000	 
  0.4500	   3.8200	  0.0000	 
  0.4500	   4.3650	  0.0000	 
  0.4500	   4.9100	  0.0000	 
  0.4500	   5.4550	  0.0000	 
  0.4500	   6.0000	  0.0000	 
  0.4500	   6.5450	  0.0000	 
  0.4500	   7.0900	  0.0000	 
  0.4500	   7.6350	  0.0000	 
  0.4500	   8.1800	  0.0000	 
  0.4500	   8.7250	  0.0000	 
  0.4500	   9.2700	  0.0000	 
  0.4500	   9.8150	  0.0000	 
  0.4500	  10.3600	  0.0000	 
  0.4500	  10.9050	  0.0000	 
  0.6750	   1.3425	  0.0000	 
  0.6750	   1.8600	  0.0000	 
  0.6750	   2.3775	  0.0000	 
  0.6750	   2.8950	  0.0000	 
  0.6750	   3.4125	  0.0000	 
  0.6750	   3.9300	  0.0000	 
  0.6750	   4.4475	  0.0000	 
  0.6750	   4.9650	  0.0000	 
  0.6750	   5.4825	  0.0000	 
  0.6750	   6.0000	  0.0000	 
  0.6750	   6.5175	  0.0000	 
  0.6750	   7.0350	  0.0000	 
  0.6750	   7.5525	  0.0000	 
  0.6750	   8.0700	  0.0000	 
  0.6750	   8.5875	  0.0000	 
  0.6750	   9.1050	  0.0000	 
  0.6750	   9.6225	  0.0000	 
  0.6750	  10.1400	  0.0000	 
  0.6750	  10.6575	  0.0000	 
  0.9000	   1.5900	  0.0000	 
  0.9000	   2.0800	  0.0000	 
  0.9000	   2.5700	  0.0000	 
  0.9000	   3.0600	  0.0000	 
  0.9000	   3.5500	  0.0000	 
  0.9000	   4.0400	  0.0000	 
  0.9000	   4.5300	  0.0000	 
  0.9000	   5.0200	  0.0000	 
  0.9000	   5.5100	  0.0000	 
  0.9000	   6.0000	  0.0000	 
  0.9000	   6.4900	  0.0000	 
  0.9000	   6.9800	  0.0000	 
  0.9000	   7.4700	  0.0000	 
  0.9000	   7.9600	  0.0000	 
  0.9000	   8.4500	  0.0000	 
  0.9000	   8.9400	  0.0000	 
  0.9000	   9.4300	  0.0000	 
  0.9000	   9.9200	  0.0000	 
  0.9000	  10.4100	  0.0000	 
  1.1250	   1.8375	  0.0000	 
  1.1250	   2.3000	  0.0000	 
  1.1250	   2.7625	  0.0000	 
  1.1250	   3.2250	  0.0000	 
  1.1250	   3.6875	  0.0000	 
  1.1250	   4.1500	  0.0000	 
  1.1250	   4.6125	  0.0000	 
  1.1250	   5.0750	  0.0000	 
  1.1250	   5.5375	  0.0000	 
  1.1250	   6.0000	  0.0000	 
  1.1250	   6.4625	  0.0000	 
  1.1250	   6.9250	  0.0000	 
  1.1250	   7.3875	  0.0000	 
  1.1250	   7.8500	  0.0000	 
  1.1250	   8.3125	  0.0000	 
  1.1250	   8.7750	  0.0000	 
  1.1250	   9.2375	  0.0000	 
  1.1250	   9.7000	  0.0000	 
  1.1250	  10.1625	  0.0000	 
  1.3500	   2.0850	  0.0000	 
  1.3500	   2.5200	  0.0000	 
  1.3500	   2.9550	  0.0000	 
  1.3500	   3.3900	  0.0000	 
  1.3500	   3.8250	  0.0000	 
  1.3500	   4.2600	  0.0000	 
  1.3500	   4.6950	  0.0000	 
  1.3500	   5.1300	  0.0000	 
  1.3500	   5.5650	  0.0000	 
  1.3500	   6.0000	  0.0000	 
  1.3500	   6.4350	  0.0000	 
  1.3500	   6.8700	  0.0000	 
  1.3500	   7.3050	  0.0000	 
  1.3500	   7.7400	  0.0000	 
  1.3500	   8.1750	  0.0000	 
  1.3500	   8.6100	  0.0000	 
  1.3500	   9.0450	  0.0000	 
  1.3500	   9.4800	  0.0000	 
  1.3500	   9.9150	  0.0000	 
  1.5750	   2.3325	  0.0000	 
  1.5750	   2.7400	  0.0000	 
  1.5750	   3.1475	  0.0000	 
  1.5750	   3.5550	  0.0000	 
  1.5750	   3.9625	  0.0000	 
  1.5750	   4.3700	  0.0000	 
  1.5750	   4.7775	  0.0000	 
  1.5750	   5.1850	  0.0000	 
  1.5750	   5.5925	  0.0000	 
  1.5750	   6.0000	  0.0000	 
  1.5750	   6.4075	  0.0000	 
  1.5750	   6.8150	  0.0000	 
  1.5750	   7.2225	  0.0000	 
  1.5750	   7.6300	  0.0000	 
  1.5750	   8.0375	  0.0000	 
  1.5750	   8.4450	  0.0000	 
  1.5750	   8.8525	  0.0000	 
  1.5750	   9.2600	  0.0000	 
  1.5750	   9.6675	  0.0000	 
  1.8000	   2.5800	  0.0000	 
  1.8000	   2.9600	  0.0000	 
  1.8000	   3.3400	  0.0000	 
  1.8000	   3.7200	  0.0000	 
  1.8000	   4.1000	  0.0000	 
  1.8000	   4.4800	  0.0000	 
  1.8000	   4.8600	  0.0000	 
  1.8000	   5.2400	  0.0000	 
  1.8000	   5.6200	  0.0000	 
  1.8000	   6.0000	  0.0000	 
  1.8000	   6.3800	  0.0000	 
  1.8000	   6.7600	  0.0000	 
  1.8000	   7.1400	  0.0000	 
  1.8000	   7.5200	  0.0000	 
  1.8000	   7.9000	  0.0000	 
  1.8000	   8.2800	  0.0000	 
  1.8000	   8.6600	  0.0000	 
  1.8000	   9.0400	  0.0000	 
  1.8000	   9.4200	  0.0000	 
  2.0250	   2.8275	  0.0000	 
  2.0250	   3.1800	  0.0000	 
  2.0250	   3.5325	  0.0000	 
  2.0250	   3.8850	  0.0000	 
  2.0250	   4.2375	  0.0000	 
  2.0250	   4.5900	  0.0000	 
  2.0250	   4.9425	  0.0000	 
  2.0250	   5.2950	  0.0000	 
  2.0250	   5.6475	  0.0000	 
  2.0250	   6.0000	  0.0000	 
  2.0250	   6.3525	  0.0000	 
  2.0250	   6.7050	  0.0000	 
  2.0250	   7.0575	  0.0000	 
  2.0250	   7.4100	  0.0000	 
  2.0250	   7.7625	  0.0000	 
  2.0250	   8.1150	  0.0000	 
  2.0250	   8.4675	  0.0000	 
  2.0250	   8.8200	  0.0000	 
  2.0250	   9.1725	  0.0000	 
  2.2500	   3.0750	  0.0000	 
  2.2500	   3.4000	  0.0000	 
  2.2500	   3.7250	  0.0000	 
  2.2500	   4.0500	  0.0000	 
  2.2500	   4.3750	  0.0000	 
  2.2500	   4.7000	  0.0000	 
  2.2500	   5.0250	  0.0000	 
  2.2500	   5.3500	  0.0000	 
  2.2500	   5.6750	  0.0000	 
  2.2500	   6.0000	  0.0000	 
  2.2500	   6.3250	  0.0000	 
  2.2500	   6.6500	  0.0000	 
  2.2500	   6.9750	  0.0000	 
  2.2500	   7.3000	  0.0000	 
  2.2500	   7.6250	  0.0000	 
  2.2500	   7.9500	  0.0000	 
  2.2500	   8.2750	  0.0000	 
  2.2500	   8.6000	  0.0000	 
  2.2500	   8.9250	  0.0000	 
  2.4750	   3.3225	  0.0000	 
  2.4750	   3.6200	  0.0000	 
  2.4750	   3.9175	  0.0000	 
  2.4750	   4.2150	  0.0000	 
  2.4750	   4.5125	  0.0000	 
  2.4750	   4.8100	  0.0000	 
  2.4750	   5.1075	  0.0000	 
  2.4750	   5.4050	  0.0000	 
  2.4750	   5.7025	  0.0000	 
  2.4750	   6.0000	  0.0000	 
  2.4750	   6.2975	  0.0000	 
  2.4750	   6.5950	  0.0000	 
  2.4750	   6.8925	  0.0000	 
  2.4750	   7.1900	  0.0000	 
  2.4750	   7.4875	  0.0000	 
  2.4750	   7.7850	  0.0000	 
  2.4750	   8.0825	  0.0000	 
  2.4750	   8.3800	  0.0000	 
  2.4750	   8.6775	  0.0000	 
  2.7000	   3.5700	  0.0000	 
  2.7000	   3.8400	  0.0000	 
  2.7000	   4.1100	  0.0000	 
  2.7000	   4.3800	  0.0000	 
  2.7000	   4.6500	  0.0000	 
  2.7000	   4.9200	  0.0000	 
  2.7000	   5.1900	  0.0000	 
  2.7000	   5.4600	  0.0000	 
  2.7000	   5.7300	  0.0000	 
  2.7000	   6.0000	  0.0000	 
  2.7000	   6.2700	  0.0000	 
  2.7000	   6.5400	  0.0000	 
  2.7000	   6.8100	  0.0000	 
  2.7000	   7.0800	  0.0000	 
  2.7000	   7.3500	  0.0000	 
  2.7000	   7.6200	  0.0000	 
  2.7000	   7.8900	  0.0000	 
  2.7000	   8.1600	  0.0000	 
  2.7000	   8.4300	  0.0000	 
  2.9250	   3.8175	  0.0000	 
  2.9250	   4.0600	  0.0000	 
  2.9250	   4.3025	  0.0000	 
  2.9250	   4.5450	  0.0000	 
  2.9250	   4.7875	  0.0000	 
  2.9250	   5.0300	  0.0000	 
  2.9250	   5.2725	  0.0000	 
  2.9250	   5.5150	  0.0000	 
  2.9250	   5.7575	  0.0000	 
  2.9250	   6.0000	  0.0000	 
  2.9250	   6.2425	  0.0000	 
  2.9250	   6.4850	  0.0000	 
  2.9250	   6.7275	  0.0000	 
  2.9250	   6.9700	  0.0000	 
  2.9250	   7.2125	  0.0000	 
  2.9250	   7.4550	  0.0000	 
  2.9250	   7.6975	  0.0000	 
  2.9250	   7.9400	  0.0000	 
  2.9250	   8.1825	  0.0000	 
  3.1500	   4.0650	  0.0000	 
  3.1500	   4.2800	  0.0000	 
  3.1500	   4.4950	  0.0000	 
  3.1500	   4.7100	  0.0000	 
  3.1500	   4.9250	  0.0000	 
  3.1500	   5.1400	  0.0000	 
  3.1500	   5.3550	  0.0000	 
  3.1500	   5.5700	  0.0000	 
  3.1500	   5.7850	  0.0000	 
  3.1500	   6.0000	  0.0000	 
  3.1500	   6.2150	  0.0000	 
  3.1500	   6.4300	  0.0000	 
  3.1500	   6.6450	  0.0000	 
  3.1500	   6.8600	  0.0000	 
  3.1500	   7.0750	  0.0000	 
  3.1500	   7.2900	  0.0000	 
  3.1500	   7.5050	  0.0000	 
  3.1500	   7.7200	  0.0000	 
  3.1500	   7.9350	  0.0000	 
  3.3750	   4.3125	  0.0000	 
  3.3750	   4.5000	  0.0000	 
  3.3750	   4.6875	  0.0000	 
  3.3750	   4.8750	  0.0000	 
  3.3750	   5.0625	  0.0000	 
  3.3750	   5.2500	  0.0000	 
  3.3750	   5.4375	  0.0000	 
  3.3750	   5.6250	  0.0000	 
  3.3750	   5.8125	  0.0000	 
  3.3750	   6.0000	  0.0000	 
  3.3750	   6.1875	  0.0000	 
  3.3750	   6.3750	  0.0000	 
  3.3750	   6.5625	  0.0000	 
  3.3750	   6.7500	  0.0000	 
  3.3750	   6.9375	  0.0000	 
  3.3750	   7.1250	  0.0000	 
  3.3750	   7.3125	  0.0000	 
  3.3750	   7.5000	  0.0000	 
  3.3750	   7.6875	  0.0000	 
  3.6000	   4.5600	  0.0000	 
  3.6000	   4.7200	  0.0000	 
  3.6000	   4.8800	  0.0000	 
  3.6000	   5.0400	  0.0000	 
  3.6000	   5.2000	  0.0000	 
  3.6000	   5.3600	  0.0000	 
  3.6000	   5.5200	  0.0000	 
  3.6000	   5.6800	  0.0000	 
  3.6000	   5.8400	  0.0000	 
  3.6000	   6.0000	  0.0000	 
  3.6000	   6.1600	  0.0000	 
  3.6000	   6.3200	  0.0000	 
  3.6000	   6.4800	  0.0000	 
  3.6000	   6.6400	  0.0000	 
  3.6000	   6.8000	  0.0000	 
  3.6000	   6.9600	  0.0000	 
  3.6000	   7.1200	  0.0000	 
  3.6000	   7.2800	  0.0000	 
  3.6000	   7.4400	  0.0000	 
  3.8250	   4.8075	  0.0000	 
  3.8250	   4.9400	  0.0000	 
  3.8250	   5.0725	  0.0000	 
  3.8250	   5.2050	  0.0000	 
  3.8250	   5.3375	  0.0000	 
  3.8250	   5.4700	  0.0000	 
  3.8250	   5.6025	  0.0000	 
[...]
POINT_DATA 	    1451 
VECTORS U float 
 50.0000	   0.0000	   0.0000	
 50.0000	   0.0000	   0.0000	
 50.0000	   0.0000	   0.0000	
 50.0000	   0.0000	   0.0000	
 50.0000	  -0.0000	   0.0000	
 50.0000	  -0.0000	   0.0000	
 50.0000	   0.0000	   0.0000	
 50.0000	  -0.0000	   0.0000	
 50.0000	  -0.0000	   0.0000	
 50.0000	   0.0000	   0.0000	
 50.0000	  -0.0000	   0.0000	
 50.0000	  -0.0000	   0.0000	
 50.0000	   0.0000	   0.0000	
 50.0000	   0.0000	   0.0000	
 50.0000	  -0.0000	   0.0000	
 50.0000	  -0.0000	   0.0000	
 50.0000	   0.0000	   0.0000	
 50.0000	   0.0000	   0.0000	
 50.0000	  -0.0000	   0.0000	
 48.9359	   6.8208	   0.0000	
 50.5387	   9.9196	   0.0000	
 50.2023	  14.6609	   0.0000	
 49.7580	  19.7943	   0.0000	
 50.3126	  12.9684	   0.0000	
 49.2444	  26.4967	   0.0000	
 49.2591	  32.4616	   0.0000	
 49.1678	  39.1830	   0.0000	
 49.7574	  42.6215	   0.0000	
 50.0471	  44.6298	   0.0000	
 49.6232	  43.8645	   0.0000	
 50.9556	  43.1518	   0.0000	
 50.3454	  36.6662	   0.0000	
 51.0483	  31.5840	   0.0000	
 50.0318	  28.6420	   0.0000	
 50.1270	  20.2389	   0.0000	
 50.2296	  22.7327	   0.0000	
 49.0510	  20.6806	   0.0000	
 50.7340	  19.3242	   0.0000	
 47.8468	  14.0749	   0.0000	
 45.5185	  25.3211	   0.0000	
 46.1953	  36.6497	   0.0000	
 54.9890	  27.6961	   0.0000	
 40.6085	  43.6750	   0.0000	
 44.9671	  46.0667	   0.0000	
 44.6712	  60.0451	   0.0000	
 46.7140	  68.5025	   0.0000	
 48.4840	  72.2121	   0.0000	
 48.8693	  74.3463	   0.0000	
 50.3950	  76.7980	   0.0000	
 51.2228	  76.2966	   0.0000	
 55.3064	  72.8695	   0.0000	
 55.0308	  57.2309	   0.0000	
 50.3215	  55.1412	   0.0000	
 56.5387	  52.4106	   0.0000	
 47.6443	  39.9769	   0.0000	
 52.0923	  42.6554	   0.0000	
 51.5523	  40.6562	   0.0000	
 40.5040	  25.2569	   0.0000	
 40.3339	  49.6537	   0.0000	
 55.2296	  40.0127	   0.0000	
 43.3423	  56.8253	   0.0000	
 44.2961	  53.3755	   0.0000	
 39.1813	  62.2541	   0.0000	
 42.1165	  67.6791	   0.0000	
 45.8154	  68.7902	   0.0000	
 47.7002	  70.6802	   0.0000	
 47.5404	  73.3664	   0.0000	
 49.5192	  77.0485	   0.0000	
 50.6242	  78.3185	   0.0000	
 54.6571	  83.2062	   0.0000	
 62.1777	  83.1900	   0.0000	
 51.5876	  72.5875	   0.0000	
 54.2173	  73.6381	   0.0000	
 57.9078	  71.2715	   0.0000	
 48.7189	  59.5141	   0.0000	
 50.2836	  59.7391	   0.0000	
 23.0814	  50.1418	   0.0000	
 52.7014	  48.2847	   0.0000	
 43.8931	  63.6625	   0.0000	
 43.5772	  64.5222	   0.0000	
 39.7408	  64.7257	   0.0000	
 38.5148	  64.4048	   0.0000	
 42.1074	  65.5222	   0.0000	
 45.3596	  68.0437	   0.0000	
 46.7535	  70.0268	   0.0000	
 46.9142	  71.8263	   0.0000	
 47.6257	  72.4687	   0.0000	
 49.6215	  76.7473	   0.0000	
 51.8911	  77.3875	   0.0000	
 59.5394	  80.8216	   0.0000	
 58.7881	  87.3377	   0.0000	
 50.9150	  84.0207	   0.0000	
 59.3889	  88.7047	   0.0000	
 55.2465	  85.8554	   0.0000	
 52.5155	  73.5269	   0.0000	
 41.7419	  51.3574	   0.0000	
 42.0071	  68.6831	   0.0000	
 41.5996	  70.7795	   0.0000	
 44.8732	  71.7305	   0.0000	
 39.6347	  67.1075	   0.0000	
 38.8681	  65.0788	   0.0000	
 41.3629	  67.1789	   0.0000	
 44.6494	  68.8040	   0.0000	
 45.6304	  70.9013	   0.0000	
 45.8115	  73.1556	   0.0000	
 47.8700	  75.0468	   0.0000	
 47.3796	  74.4239	   0.0000	
 51.2077	  79.2783	   0.0000	
 56.9540	  78.0332	   0.0000	
 55.8133	  83.7603	   0.0000	
 51.7579	  94.5575	   0.0000	
 53.2323	  93.1279	   0.0000	
 59.3166	 100.4527	   0.0000	
 60.0083	 100.9608	   0.0000	
 37.7002	  70.0207	   0.0000	
 41.5301	  73.5043	   0.0000	
 42.6572	  71.4092	   0.0000	
 46.0083	  71.6162	   0.0000	
 40.3735	  67.5163	   0.0000	
 38.7416	  67.2953	   0.0000	
 41.5904	  67.9161	   0.0000	
 43.7705	  69.9894	   0.0000	
 44.7905	  72.3229	   0.0000	
 44.5500	  74.5446	   0.0000	
 46.6990	  77.4132	   0.0000	
 47.6936	  79.0590	   0.0000	
 47.6012	  79.1098	   0.0000	
 56.0745	  83.5442	   0.0000	
 53.8571	  85.1574	   0.0000	
 47.1591	  92.0863	   0.0000	
 52.1250	  97.7288	   0.0000	
 52.4850	 101.4672	   0.0000	
 54.1148	 113.9550	   0.0000	
 39.6526	  62.4643	   0.0000	
 43.2953	  62.7753	   0.0000	
 43.7112	  62.2623	   0.0000	
 45.1888	  65.0647	   0.0000	
 39.4440	  64.8279	   0.0000	
 39.0995	  64.2040	   0.0000	
 40.5279	  66.6665	   0.0000	
 42.6231	  69.7527	   0.0000	
 43.3512	  72.1815	   0.0000	
 43.7617	  73.8701	   0.0000	
 45.3598	  74.6972	   0.0000	
 46.4603	  77.4335	   0.0000	
 47.8197	  79.0844	   0.0000	
 51.5714	  77.0846	   0.0000	
 54.0536	  84.1272	   0.0000	
 47.4927	  85.5164	   0.0000	
 46.9817	  84.5448	   0.0000	
 50.9191	  89.7120	   0.0000	
 45.5874	  96.8913	   0.0000	
 41.2398	  60.0052	   0.0000	
 43.6161	  61.7343	   0.0000	
 42.4280	  63.2802	   0.0000	
 42.5935	  68.7321	   0.0000	
 39.6633	  66.5557	   0.0000	
 38.1120	  67.3239	   0.0000	
 39.3417	  69.9356	   0.0000	
 41.4684	  71.9307	   0.0000	
 42.5275	  73.7423	   0.0000	
 42.3998	  75.9542	   0.0000	
 44.9637	  78.3132	   0.0000	
 44.7479	  78.3438	   0.0000	
 46.5090	  81.5733	   0.0000	
 52.0752	  81.2826	   0.0000	
 49.4356	  81.1452	   0.0000	
 49.8144	  89.3148	   0.0000	
 48.3910	  85.1152	   0.0000	
 46.2900	  84.3293	   0.0000	
 45.0618	  93.0987	   0.0000	
 42.0907	  58.9453	   0.0000	
 41.5924	  61.7996	   0.0000	
 39.4146	  64.7858	   0.0000	
 42.8088	  66.3192	   0.0000	
 38.2991	  66.1043	   0.0000	
 37.1253	  67.3891	   0.0000	
 38.5843	  68.9963	   0.0000	
 40.4328	  71.3454	   0.0000	
 40.9787	  74.0735	   0.0000	
 41.1233	  76.2625	   0.0000	
 43.5292	  78.1289	   0.0000	
 44.7659	  80.3179	   0.0000	
 44.1488	  80.4142	   0.0000	
 50.5413	  81.9487	   0.0000	
 50.9694	  83.5900	   0.0000	
 44.5590	  84.5196	   0.0000	
 51.0113	  89.1337	   0.0000	
 48.7124	  87.1091	   0.0000	
 40.2759	  90.6462	   0.0000	
 39.8906	  59.6722	   0.0000	
 38.2780	  63.2431	   0.0000	
 40.5518	  63.3374	   0.0000	
 40.5691	  66.4539	   0.0000	
 36.7337	  67.0736	   0.0000	
 36.4839	  67.8417	   0.0000	
 37.3534	  70.2214	   0.0000	
 38.6079	  73.3490	   0.0000	
 39.5785	  75.7921	   0.0000	
 39.8903	  77.3873	   0.0000	
 42.5319	  78.7605	   0.0000	
 42.9736	  79.6860	   0.0000	
 44.3999	  81.9643	   0.0000	
 47.9377	  79.4497	   0.0000	
 49.7685	  82.3721	   0.0000	
 47.8447	  84.1929	   0.0000	
 43.6272	  82.6120	   0.0000	
 51.5424	  87.6135	   0.0000	
 44.6817	  88.5759	   0.0000	
 36.4988	  62.0954	   0.0000	
 40.1427	  62.3025	   0.0000	
 38.2009	  63.4197	   0.0000	
 38.1407	  66.8005	   0.0000	
 35.8446	  66.8842	   0.0000	
 35.1226	  68.5324	   0.0000	
 35.4855	  71.0301	   0.0000	
 37.0288	  73.3204	   0.0000	
 38.3832	  75.2208	   0.0000	
 37.9865	  77.8054	   0.0000	
 41.7495	  80.3949	   0.0000	
 42.2714	  81.0658	   0.0000	
 42.7962	  81.9923	   0.0000	
 48.6749	  81.7758	   0.0000	
 46.9666	  81.4336	   0.0000	
 47.9084	  85.0855	   0.0000	
 46.6799	  85.7122	   0.0000	
 42.7917	  85.9256	   0.0000	
 49.0629	  91.7751	   0.0000	
 39.6795	  60.9319	   0.0000	
 37.2728	  62.9112	   0.0000	
 35.8982	  65.4015	   0.0000	
 36.4245	  67.4298	   0.0000	
 34.1837	  68.5005	   0.0000	
 33.4287	  70.1225	   0.0000	
 34.2249	  72.0564	   0.0000	
 35.7429	  74.1980	   0.0000	
 36.2102	  77.1846	   0.0000	
 35.9658	  79.8802	   0.0000	
 39.3870	  82.2285	   0.0000	
 41.5783	  84.6521	   0.0000	
 42.3589	  85.0880	   0.0000	
 46.5427	  83.2957	   0.0000	
 47.9562	  85.5474	   0.0000	
 44.4831	  86.5081	   0.0000	
 45.8209	  90.5711	   0.0000	
 47.3270	  89.5550	   0.0000	
 38.8228	  89.4486	   0.0000	
 35.7864	  57.7379	   0.0000	
 32.8974	  59.9725	   0.0000	
 34.4719	  63.5342	   0.0000	
 33.6424	  67.1991	   0.0000	
 31.8955	  69.5784	   0.0000	
 32.2927	  71.2837	   0.0000	
 32.3148	  73.5319	   0.0000	
 32.9515	  77.3337	   0.0000	
 33.5067	  81.0544	   0.0000	
 35.9056	  81.1134	   0.0000	
 37.8164	  80.5235	   0.0000	
 38.6602	  82.1326	   0.0000	
 42.1639	  84.8579	   0.0000	
 46.6924	  82.9416	   0.0000	
 44.8769	  84.3142	   0.0000	
 45.9036	  87.1333	   0.0000	
 41.3036	  88.2080	   0.0000	
 49.0875	  85.4947	   0.0000	
 49.2870	  78.9639	   0.0000	
 31.0410	  59.7647	   0.0000	
 29.9457	  61.2437	   0.0000	
 29.8584	  65.4978	   0.0000	
 30.2661	  67.9453	   0.0000	
 29.9295	  69.6970	   0.0000	
 30.0963	  71.9579	   0.0000	
 29.0004	  74.7871	   0.0000	
 29.3433	  77.7492	   0.0000	
 33.7923	  77.9944	   0.0000	
 31.9848	  81.0582	   0.0000	
 39.1148	  85.1123	   0.0000	
 36.5202	  83.3774	   0.0000	
 39.0296	  84.7563	   0.0000	
 46.1115	  84.4402	   0.0000	
 43.5070	  87.1850	   0.0000	
 42.7248	  89.9054	   0.0000	
 44.1314	  92.0990	   0.0000	
 47.6238	  84.8242	   0.0000	
 55.3348	  77.2039	   0.0000	
 26.9040	  58.2984	   0.0000	
 23.8237	  64.6043	   0.0000	
 27.5054	  69.0109	   0.0000	
 28.4272	  72.0348	   0.0000	
 27.6670	  73.7581	   0.0000	
 27.1881	  75.3482	   0.0000	
 26.9156	  76.0301	   0.0000	
 31.2945	  74.5367	   0.0000	
 30.5950	  76.4801	   0.0000	
 26.2697	  81.4331	   0.0000	
 33.4068	  86.6364	   0.0000	
 38.9253	  90.7726	   0.0000	
 38.1302	  88.9315	   0.0000	
 40.3717	  89.9216	   0.0000	
 41.4990	  97.3021	   0.0000	
 39.5641	 101.2401	   0.0000	
 42.6164	  99.1464	   0.0000	
 56.1289	  88.9779	   0.0000	
 54.7952	  78.2002	   0.0000	
 19.9364	  55.3765	   0.0000	
 23.1159	  59.5532	   0.0000	
 15.2298	  67.9265	   0.0000	
 23.9729	  79.2797	   0.0000	
 25.0385	  83.7118	   0.0000	
 27.2950	  85.1870	   0.0000	
 31.0356	  83.4340	   0.0000	
 28.8877	  84.6656	   0.0000	
 22.9906	  90.4192	   0.0000	
 28.9323	  88.8273	   0.0000	
 26.1459	  86.8036	   0.0000	
 30.0855	  93.3672	   0.0000	
 41.2895	  98.4377	   0.0000	
 36.1162	  96.4545	   0.0000	
 29.7993	 103.9637	   0.0000	
 37.0454	 105.5926	   0.0000	
 51.8192	  95.0561	   0.0000	
 49.7722	  85.4272	   0.0000	
 65.8792	  72.7101	   0.0000	
  5.5704	  49.3743	   0.0000	
  2.2100	  56.4753	   0.0000	
 14.8276	  63.9750	   0.0000	
 17.3644	  69.9768	   0.0000	
 23.8266	  74.1432	   0.0000	
 32.7826	  74.5377	   0.0000	
 27.6770	  74.5692	   0.0000	
 17.5144	  78.8021	   0.0000	
 26.2292	  78.2633	   0.0000	
 19.9814	  82.4064	   0.0000	
 29.9538	  88.3985	   0.0000	
 16.4711	  87.8269	   0.0000	
 25.3918	  96.3544	   0.0000	
 43.5370	 100.0400	   0.0000	
 21.6492	 109.5571	   0.0000	
 32.8528	 114.5132	   0.0000	
 38.5881	 106.3071	   0.0000	
 64.6458	  98.8297	   0.0000	
 72.3287	  83.4598	   0.0000	
 -1.3866	  58.3190	   0.0000	
  5.0394	  67.6591	   0.0000	
 10.0749	  74.1968	   0.0000	
 25.0999	  79.6761	   0.0000	
 33.6431	  83.4522	   0.0000	
 24.2258	  82.0990	   0.0000	
 11.5682	  89.3414	   0.0000	
 21.0277	  92.8345	   0.0000	
 16.7377	  98.8419	   0.0000	
 14.1747	 103.3055	   0.0000	
 15.1505	 106.8392	   0.0000	
 20.6635	 114.7772	   0.0000	
  3.1505	 119.4246	   0.0000	
 19.7110	 124.8618	   0.0000	
 15.3047	 139.2189	   0.0000	
  6.6322	 150.6316	   0.0000	
 27.9836	 143.7647	   0.0000	
 61.2444	 124.1324	   0.0000	
 70.6657	  98.6567	   0.0000	
 -2.9596	  34.9089	   0.0000	
  4.4860	  41.3721	   0.0000	
 16.4044	  49.0419	   0.0000	
 25.2276	  57.2667	   0.0000	
  0.9256	  65.3359	   0.0000	
  0.1123	  66.2247	   0.0000	
  9.3454	  70.6111	   0.0000	
  0.1530	  74.7132	   0.0000	
  7.2094	  78.2650	   0.0000	
  0.2194	  81.4976	   0.0000	
  7.2673	  84.8472	   0.0000	
 -0.3077	  88.1566	   0.0000	
  7.3222	  91.1081	   0.0000	
 -0.9159	  94.0313	   0.0000	
 -0.4265	  93.2939	   0.0000	
 -5.2806	  98.2449	   0.0000	
 -0.4264	  96.4995	   0.0000	
 22.3794	  92.6343	   0.0000	
 61.0879	  81.2563	   0.0000	
 -0.0000	  -0.0000	   0.0000	
  0.0000	   0.0000	   0.0000	
 -0.0000	   0.0000	   0.0000	
 -0.0000	   0.0000	   0.0000	
  0.0000	  -0.0000	   0.0000	
 -0.0000	   0.0000	   0.0000	
  0.0000	   0.0000	   0.0000	
  0.0000	  -0.0000	   0.0000	
 -0.0000	  -0.0000	   0.0000	
  0.0000	   0.0000	   0.0000	
  0.0000	   0.0000	   0.0000	
  0.0000	  -0.0000	   0.0000	
 -0.0000	   0.0000	   0.0000	
 -0.0000	   0.0000	   0.0000	
 -0.0000	  -0.0000	   0.0000	
 -0.0000	  -0.0000	   0.0000	
  0.0000	  -0.0000	   0.0000	
 -0.0000	  -0.0000	   0.0000	
  0.0000	   0.0000	   0.0000	
 50.0000	  50.0000	   0.0000	
 50.0000	  -0.0000	   0.0000	
 68.7867	  49.9916	   0.0000	
 49.9466	  16.7796	   0.0000	
 86.8505	  49.8775	   0.0000	
 51.3267	  33.9811	   0.0000	
 80.4836	  55.5667	   0.0000	
 56.5523	  51.8419	   0.0000	
 75.8559	  60.6602	   0.0000	
 59.2111	  69.1415	   0.0000	
 46.2271	  80.3582	   0.0000	
 52.7023	  80.6037	   0.0000	
 48.6174	  75.8137	   0.0000	
 75.2055	 103.0464	   0.0000	
 44.6105	  74.9982	   0.0000	
 66.6057	  92.9076	   0.0000	
 48.2864	  69.5623	   0.0000	
 54.5943	  82.5107	   0.0000	
 48.4111	  67.0312	   0.0000	
 55.4565	  80.4876	   0.0000	
 47.9174	  64.9077	   0.0000	
 50.8374	  75.6866	   0.0000	
 43.5598	  64.8693	   0.0000	
 56.0109	  76.7034	   0.0000	
 38.8849	  64.0583	   0.0000	
 62.1766	  76.8165	   0.0000	
 41.1228	  58.8864	   0.0000	
 49.0294	  67.7277	   0.0000	
 34.3848	  57.3271	   0.0000	
 58.2917	  68.9005	   0.0000	
 28.1189	  54.8624	   0.0000	
 64.2209	  67.4979	   0.0000	
 17.8355	  52.9016	   0.0000	
 68.2860	  64.0860	   0.0000	
 17.4352	  42.5665	   0.0000	
 77.6666	  60.4309	   0.0000	
-14.4853	  46.8598	   0.0000	
105.1587	  65.6030	   0.0000	
-12.1367	  26.6840	   0.0000	
113.8370	  53.4459	   0.0000	
 -0.0000	   0.0000	   0.0000	
 -0.0000	  -0.0000	   0.0000	
 50.6600	  50.0000	   0.0000	
 90.0468	 160.3741	   0.0000	
 46.4925	  49.7866	   0.0000	
 53.2961	 142.2487	   0.0000	
 44.9107	  49.4397	   0.0000	
 34.9787	 126.1418	   0.0000	
 44.2759	  48.1666	   0.0000	
 22.5973	 112.3050	   0.0000	
 43.0409	  47.6029	   0.0000	
 23.2813	 106.5635	   0.0000	
 44.5872	  46.0948	   0.0000	
 21.8631	 101.6151	   0.0000	
 43.3705	  46.1689	   0.0000	
 24.3771	  98.6981	   0.0000	
 44.5021	  45.2016	   0.0000	
 23.2840	  94.3817	   0.0000	
 43.2704	  44.8183	   0.0000	
 25.6716	  90.9318	   0.0000	
 40.5401	  45.0013	   0.0000	
 28.5867	  87.4967	   0.0000	
 40.3491	  43.7986	   0.0000	
 34.6566	  85.2139	   0.0000	
 45.6029	  40.7330	   0.0000	
 26.0278	  77.4612	   0.0000	
 40.6019	  41.0750	   0.0000	
 33.8838	  75.8117	   0.0000	
 40.9775	  38.2282	   0.0000	
 36.0379	  70.8410	   0.0000	
 39.2705	  34.2314	   0.0000	
 37.4669	  64.7236	   0.0000	
 41.2280	  28.8541	   0.0000	
 42.1484	  56.5408	   0.0000	
 27.1624	  27.2421	   0.0000	
 58.1482	  50.9655	   0.0000	
 18.8602	  20.7781	   0.0000	
 69.0273	  40.6432	   0.0000	
 38.3710	   2.9003	   0.0000	
 62.4235	  22.5895	   0.0000	
 27.3038	   0.3898	   0.0000	
 -3.6468	  -1.6029	   0.0000	
 -0.0000	   0.0000	   0.0000	
 -0.0000	  -0.0000	   0.0000	
 53.0234	  50.0000	   0.0000	
-45.6393	  65.9291	   0.0000	
 50.6226	  50.6422	   0.0000	
-13.4336	  67.7026	   0.0000	
 48.0316	  50.9895	   0.0000	
  1.9122	  67.7039	   0.0000	
 45.6208	  52.1096	   0.0000	
  9.3953	  67.4745	   0.0000	
 46.3767	  52.3236	   0.0000	
 11.3801	  66.1862	   0.0000	
 46.1529	  52.9448	   0.0000	
 11.0259	  64.9532	   0.0000	
 46.2796	  53.7675	   0.0000	
 12.6249	  63.7443	   0.0000	
 46.4016	  53.6822	   0.0000	
 14.3844	  62.0788	   0.0000	
 45.6597	  54.5977	   0.0000	
 16.4523	  60.7436	   0.0000	
 44.6810	  55.3044	   0.0000	
 19.4544	  59.7253	   0.0000	
 49.0061	  55.1753	   0.0000	
 15.3044	  58.1231	   0.0000	
 49.4528	  55.8117	   0.0000	
 17.0876	  55.8999	   0.0000	
 54.3990	  56.0467	   0.0000	
 17.0021	  53.5063	   0.0000	
 56.4482	  56.9997	   0.0000	
  8.0932	  50.3516	   0.0000	
 59.3525	  57.6424	   0.0000	
 11.4247	  48.0435	   0.0000	
 62.7895	  55.6432	   0.0000	
 13.2196	  42.4282	   0.0000	
 61.9885	  54.8533	   0.0000	
 19.4203	  38.1155	   0.0000	
 69.4537	  55.6176	   0.0000	
 24.3420	  34.0631	   0.0000	
 66.9475	  54.6764	   0.0000	
 -1.6524	  34.3693	   0.0000	
 40.8258	  54.6790	   0.0000	
  0.4984	  40.1399	   0.0000	
 30.1543	  52.3700	   0.0000	
  0.2552	  42.8880	   0.0000	
 45.1421	  50.0000	   0.0000	
 11.1990	  53.8146	   0.0000	
 43.9490	  50.4824	   0.0000	
 -2.3968	  59.0132	   0.0000	
 42.0444	  50.6429	   0.0000	
  1.9236	  59.5798	   0.0000	
 39.9028	  50.4778	   0.0000	
  5.1620	  59.1209	   0.0000	
 40.5599	  51.0205	   0.0000	
  6.3976	  59.0659	   0.0000	
 41.2881	  51.5048	   0.0000	
  6.6430	  59.2854	   0.0000	
 39.8229	  51.5400	   0.0000	
 10.3285	  58.4604	   0.0000	
 40.3244	  52.3355	   0.0000	
  8.9499	  59.4856	   0.0000	
 41.6595	  52.9754	   0.0000	
 11.0202	  58.8087	   0.0000	
 40.4255	  53.4587	   0.0000	
 12.8418	  58.5297	   0.0000	
 43.3035	  54.6782	   0.0000	
 13.8675	  58.7898	   0.0000	
 41.3460	  55.0682	   0.0000	
 14.0370	  58.4655	   0.0000	
 41.8120	  56.8504	   0.0000	
 10.1822	  60.1637	   0.0000	
 44.7997	  59.4285	   0.0000	
 12.5487	  61.1006	   0.0000	
 43.4110	  60.7878	   0.0000	
 11.7775	  61.4509	   0.0000	
 49.4976	  65.7230	   0.0000	
  7.0179	  64.2469	   0.0000	
 47.5386	  68.9373	   0.0000	
  9.1200	  64.3799	   0.0000	
 47.0310	  73.4876	   0.0000	
 13.6198	  64.1122	   0.0000	
 50.0088	  78.7527	   0.0000	
 20.4798	  61.5754	   0.0000	
 40.5569	  85.5127	   0.0000	
 19.4939	  69.0350	   0.0000	
 19.7125	  87.4848	   0.0000	
 23.0272	  73.2772	   0.0000	
 43.5232	  50.0000	   0.0000	
 -1.5667	  45.6374	   0.0000	
 43.6930	  49.9559	   0.0000	
  2.2533	  44.8025	   0.0000	
 43.1430	  50.2621	   0.0000	
  4.8474	  44.0496	   0.0000	
 41.9172	  49.9454	   0.0000	
  7.8473	  43.2184	   0.0000	
 42.4550	  50.3081	   0.0000	
  6.9855	  44.5652	   0.0000	
 42.2994	  50.0708	   0.0000	
  5.5513	  46.6359	   0.0000	
 41.4178	  49.6165	   0.0000	
  6.9910	  46.8971	   0.0000	
 41.2631	  49.5905	   0.0000	
  7.5525	  48.0831	   0.0000	
 40.7316	  49.5690	   0.0000	
  9.8785	  48.1366	   0.0000	
 39.3476	  48.9054	   0.0000	
 11.3442	  48.3929	   0.0000	
 40.9188	  49.9287	   0.0000	
  9.4546	  50.3945	   0.0000	
 38.1644	  49.0591	   0.0000	
 14.5360	  48.9862	   0.0000	
 39.4880	  50.5381	   0.0000	
 14.7689	  49.9472	   0.0000	
 38.0940	  50.3719	   0.0000	
 13.9863	  51.0928	   0.0000	
 38.8539	  51.9683	   0.0000	
 14.9569	  52.5976	   0.0000	
 37.7321	  52.4629	   0.0000	
 15.4606	  53.3914	   0.0000	
 36.5354	  54.0920	   0.0000	
 15.7658	  55.5696	   0.0000	
 38.4761	  58.4085	   0.0000	
 14.4124	  59.4779	   0.0000	
 33.5531	  59.5444	   0.0000	
 22.1481	  59.5851	   0.0000	
 38.6369	  65.6221	   0.0000	
 16.8436	  63.6099	   0.0000	
 14.6549	  63.2679	   0.0000	
 38.7615	  57.3242	   0.0000	
 50.2963	  50.0000	   0.0000	
  0.5662	  30.0267	   0.0000	
 47.7067	  49.3662	   0.0000	
  1.9542	  31.4776	   0.0000	
 44.8895	  48.6742	   0.0000	
  3.3027	  32.9333	   0.0000	
 44.1936	  48.5485	   0.0000	
  4.3992	  34.4364	   0.0000	
 45.5685	  49.1177	   0.0000	
  6.8888	  35.4299	   0.0000	
 45.2872	  48.9545	   0.0000	
  7.7308	  37.3127	   0.0000	
 41.8792	  46.5483	   0.0000	
  8.4173	  38.6518	   0.0000	
 41.4890	  46.7523	   0.0000	
  9.7171	  38.8559	   0.0000	
 41.3211	  47.4486	   0.0000	
 10.5189	  39.4606	   0.0000	
 39.9603	  47.6423	   0.0000	
 12.0051	  40.6925	   0.0000	
 39.5453	  47.9757	   0.0000	
 13.4176	  41.9685	   0.0000	
 38.2472	  48.1705	   0.0000	
 14.9913	  42.8761	   0.0000	
 37.7940	  48.7521	   0.0000	
 15.6300	  44.7640	   0.0000	
 37.2016	  49.6675	   0.0000	
 15.5271	  46.9726	   0.0000	
 36.9524	  49.4265	   0.0000	
 16.5175	  46.8571	   0.0000	
 35.0552	  49.7800	   0.0000	
 17.2438	  47.8171	   0.0000	
 34.1548	  50.0017	   0.0000	
 21.8094	  47.0429	   0.0000	
 35.3649	  52.1595	   0.0000	
 18.6238	  51.2189	   0.0000	
 32.1931	  51.3916	   0.0000	
 21.9552	  51.4611	   0.0000	
 30.1065	  51.5781	   0.0000	
 24.1032	  52.4787	   0.0000	
 28.2543	  54.3191	   0.0000	
 21.5434	  56.3809	   0.0000	
  0.0000	   0.0000	   0.0000	
  0.0000	   0.0000	   0.0000	
 -0.0000	   0.0000	   0.0000	
  0.0000	  -0.0000	   0.0000	
 -0.0000	   0.0000	   0.0000	
  0.0000	   0.0000	   0.0000	
 -0.0000	   0.0000	   0.0000	
 -0.0000	  -0.0000	   0.0000	
 -0.0000	  -0.0000	   0.0000	
 -0.0000	   0.0000	   0.0000	
 -0.0000	  -0.0000	   0.0000	
 -0.0000	  -0.0000	   0.0000	
 -0.0000	   0.0000	   0.0000	
 -0.0000	  -0.0000	   0.0000	