# vtk DataFile Version 3.0 
Results 
ASCII 
DATASET UNSTRUCTURED_GRID 
POINTS 	    1451 float 
  0.0000	   0.6000	  0.0000	 
  0.0000	   1.2000	  0.0000	 
  0.0000	   1.8000	  0.0000	 
  0.0000	   2.4000	  0.0000	 
  0.0000	   3.0000	  0.0000	 
  0.0000	   3.6000	  0.0000	 
  0.0000	   4.2000	  0.0000	 
  0.0000	   4.8000	  0.0000	 
  0.0000	   5.4000	  0.0000	 
  0.0000	   6.0000	  0.0000	 
  0.0000	   6.6000	  0.0000	 
  0.0000	   7.2000	  0.0000	 
  0.0000	   7.8000	  0.0000	 
  0.0000	   8.4000	  0.0000	 
  0.0000	   9.0000	  0.0000	 
  0.0000	   9.6000	  0.0000	 
  0.0000	  10.2000	  0.0000	 
  0.0000	  10.8000	  0.0000	 
  0.0000	  11.4000	  0.0000	 
  0.2250	   0.8475	  0.0000	 
  0.2250	   1.4200	  0.0000	 
  0.2250	   1.9925	  0.0000	 
  0.2250	   2.5650	  0.0000	 
  0.2250	   3.1375	  0.0000	 
  0.2250	   3.7100	  0.0000	 
  0.2250	   4.2825	  0.0000	 
  0.2250	   4.8550	  0.0000	 
  0.2250	   5.4275	  0.0000	 
  0.2250	   6.0000	  0.0000	 
  0.2250	   6.5725	  0.0000	 
  0.2250	   7.1450	  0.0000	 
  0.2250	   7.7175	  0.0000	 
  0.2250	   8.2900	  0.0000	 
  0.2250	   8.8625	  0.0000	 
  0.2250	   9.4350	  0.0000	 
  0.2250	  10.0075	  0.0000	 
  0.2250	  10.5800	  0.0000	 
  0.2250	  11.1525	  0.0000	 
  0.4500	   1.0950	  0.0000	 
  0.4500	   1.6400	  0.0000	 
  0.4500	   2.1850	  0.0000	 
  0.4500	   2.7300	  0.0000	 
  0.4500	   3.2750	  0.0000	 
  0.4500	   3.8200	  0.0000	 
  0.4500	   4.3650	  0.0000	 
  0.4500	   4.9100	  0.0000	 
  0.4500	   5.4550	  0.0000	 
  0.4500	   6.0000	  0.0000	 
  0.4500	   6.5450	  0.0000	 
  0.4500	   7.0900	  0.0000	 
  0.4500	   7.6350	  0.0000	 
  0.4500	   8.1800	  0.0000	 
  0.4500	   8.7250	  0.0000	 
  0.4500	   9.2700	  0.0000	 
  0.4500	   9.8150	  0.0000	 
  0.4500	  10.3600	  0.0000	 
  0.4500	  10.9050	  0.0000	 
  0.6750	   1.3425	  0.0000	 
  0.6750	   1.8600	  0.0000	 
  0.6750	   2.3775	  0.0000	 
  0.6750	   2.8950	  0.0000	 
  0.6750	   3.4125	  0.0000	 
  0.6750	   3.9300	  0.0000	 
  0.6750	   4.4475	  0.0000	 
  0.6750	   4.9650	  0.0000	 
  0.6750	   5.4825	  0.0000	 
  0.6750	   6.0000	  0.0000	 
  0.6750	   6.5175	  0.0000	 
  0.6750	   7.0350	  0.0000	 
  0.6750	   7.5525	  0.0000	 
  0.6750	   8.0700	  0.0000	 
  0.6750	   8.5875	  0.0000	 
  0.6750	   9.1050	  0.0000	 
  0.6750	   9.6225	  0.0000	 
  0.6750	  10.1400	  0.0000	 
  0.6750	  10.6575	  0.0000	 
  0.9000	   1.5900	  0.0000	 
  0.9000	   2.0800	  0.0000	 
  0.9000	   2.5700	  0.0000	 
  0.9000	   3.0600	  0.0000	 
  0.9000	   3.5500	  0.0000	 
  0.9000	   4.0400	  0.0000	 
  0.9000	   4.5300	  0.0000	 
  0.9000	   5.0200	  0.0000	 
  0.9000	   5.5100	  0.0000	 
  0.9000	   6.0000	  0.0000	 
  0.9000	   6.4900	  0.0000	 
  0.9000	   6.9800	  0.0000	 
  0.9000	   7.4700	  0.0000	 
  0.9000	   7.9600	  0.0000	 
  0.9000	   8.4500	  0.0000	 
  0.9000	   8.9400	  0.0000	 
  0.9000	   9.4300	  0.0000	 
  0.9000	   9.9200	  0.0000	 
  0.9000	  10.4100	  0.0000	 
  1.1250	   1.8375	  0.0000	 
  1.1250	   2.3000	  0.0000	 
  1.1250	   2.7625	  0.0000	 
  1.1250	   3.2250	  0.0000	 
  1.1250	   3.6875	  0.0000	 
  1.1250	   4.1500	  0.0000	 
  1.1250	   4.6125	  0.0000	 
  1.1250	   5.0750	  0.0000	 
  1.1250	   5.5375	  0.0000	 
  1.1250	   6.0000	  0.0000	 
  1.1250	   6.4625	  0.0000	 
  1.1250	   6.9250	  0.0000	 
  1.1250	   7.3875	  0.0000	 
  1.1250	   7.8500	  0.0000	 
  1.1250	   8.3125	  0.0000	 
  1.1250	   8.7750	  0.0000	 
  1.1250	   9.2375	  0.0000	 
  1.1250	   9.7000	  0.0000	 
  1.1250	  10.1625	  0.0000	 
  1.3500	   2.0850	  0.0000	 
  1.3500	   2.5200	  0.0000	 
  1.3500	   2.9550	  0.0000	 
  1.3500	   3.3900	  0.0000	 
  1.3500	   3.8250	  0.0000	 
  1.3500	   4.2600	  0.0000	 
  1.3500	   4.6950	  0.0000	 
  1.3500	   5.1300	  0.0000	 
  1.3500	   5.5650	  0.0000	 
  1.3500	   6.0000	  0.0000	 
  1.3500	   6.4350	  0.0000	 
  1.3500	   6.8700	  0.0000	 
  1.3500	   7.3050	  0.0000	 
  1.3500	   7.7400	  0.0000	 
  1.3500	   8.1750	  0.0000	 
  1.3500	   8.6100	  0.0000	 
  1.3500	   9.0450	  0.0000	 
  1.3500	   9.4800	  0.0000	 
  1.3500	   9.9150	  0.0000	 
  1.5750	   2.3325	  0.0000	 
  1.5750	   2.7400	  0.0000	 
  1.5750	   3.1475	  0.0000	 
  1.5750	   3.5550	  0.0000	 
  1.5750	   3.9625	  0.0000	 
  1.5750	   4.3700	  0.0000	 
  1.5750	   4.7775	  0.0000	 
  1.5750	   5.1850	  0.0000	 
  1.5750	   5.5925	  0.0000	 
  1.5750	   6.0000	  0.0000	 
  1.5750	   6.4075	  0.0000	 
  1.5750	   6.8150	  0.0000	 
  1.5750	   7.2225	  0.0000	 
  1.5750	   7.6300	  0.0000	 
  1.5750	   8.0375	  0.0000	 
  1.5750	   8.4450	  0.0000	 
  1.5750	   8.8525	  0.0000	 
  1.5750	   9.2600	  0.0000	 
  1.5750	   9.6675	  0.0000	 
  1.8000	   2.5800	  0.0000	 
  1.8000	   2.9600	  0.0000	 
  1.8000	   3.3400	  0.0000	 
  1.8000	   3.7200	  0.0000	 
  1.8000	   4.1000	  0.0000	 
  1.8000	   4.4800	  0.0000	 
  1.8000	   4.8600	  0.0000	 
  1.8000	   5.2400	  0.0000	 
  1.8000	   5.6200	  0.0000	 
  1.8000	   6.0000	  0.0000	 
  1.8000	   6.3800	  0.0000	 
  1.8000	   6.7600	  0.0000	 
  1.8000	   7.1400	  0.0000	 
  1.8000	   7.5200	  0.0000	 
  1.8000	   7.9000	  0.0000	 
  1.8000	   8.2800	  0.0000	 
  1.8000	   8.6600	  0.0000	 
  1.8000	   9.0400	  0.0000	 
  1.8000	   9.4200	  0.0000	 
  2.0250	   2.8275	  0.0000	 
  2.0250	   3.1800	  0.0000	 
  2.0250	   3.5325	  0.0000	 
  2.0250	   3.8850	  0.0000	 
  2.0250	   4.2375	  0.0000	 
  2.0250	   4.5900	  0.0000	 
  2.0250	   4.9425	  0.0000	 
  2.0250	   5.2950	  0.0000	 
  2.0250	   5.6475	  0.0000	 
  2.0250	   6.0000	  0.0000	 
  2.0250	   6.3525	  0.0000	 
  2.0250	   6.7050	  0.0000	 
  2.0250	   7.0575	  0.0000	 
  2.0250	   7.4100	  0.0000	 
  2.0250	   7.7625	  0.0000	 
  2.0250	   8.1150	  0.0000	 
  2.0250	   8.4675	  0.0000	 
  2.0250	   8.8200	  0.0000	 
  2.0250	   9.1725	  0.0000	 
  2.2500	   3.0750	  0.0000	 
  2.2500	   3.4000	  0.0000	 
  2.2500	   3.7250	  0.0000	 
  2.2500	   4.0500	  0.0000	 
  2.2500	   4.3750	  0.0000	 
  2.2500	   4.7000	  0.0000	 
  2.2500	   5.0250	  0.0000	 
  2.2500	   5.3500	  0.0000	 
  2.2500	   5.6750	  0.0000	 
  2.2500	   6.0000	  0.0000	 
  2.2500	   6.3250	  0.0000	 
  2.2500	   6.6500	  0.0000	 
  2.2500	   6.9750	  0.0000	 
  2.2500	   7.3000	  0.0000	 
  2.2500	   7.6250	  0.0000	 
  2.2500	   7.9500	  0.0000	 
  2.2500	   8.2750	  0.0000	 
  2.2500	   8.6000	  0.0000	 
  2.2500	   8.9250	  0.0000	 
  2.4750	   3.3225	  0.0000	 
  2.4750	   3.6200	  0.0000	 
  2.4750	   3.9175	  0.0000	 
  2.4750	   4.2150	  0.0000	 
  2.4750	   4.5125	  0.0000	 
  2.4750	   4.8100	  0.0000	 
  2.4750	   5.1075	  0.0000	 
  2.4750	   5.4050	  0.0000	 
  2.4750	   5.7025	  0.0000	 
  2.4750	   6.0000	  0.0000	 
  2.4750	   6.2975	  0.0000	 
  2.4750	   6.5950	  0.0000	 
  2.4750	   6.8925	  0.0000	 
  2.4750	   7.1900	  0.0000	 
  2.4750	   7.4875	  0.0000	 
  2.4750	   7.7850	  0.0000	 
  2.4750	   8.0825	  0.0000	 
  2.4750	   8.3800	  0.0000	 
  2.4750	   8.6775	  0.0000	 
  2.7000	   3.5700	  0.0000	 
  2.7000	   3.8400	  0.0000	 
  2.7000	   4.1100	  0.0000	 
  2.7000	   4.3800	  0.0000	 
  2.7000	   4.6500	  0.0000	 
  2.7000	   4.9200	  0.0000	 
  2.7000	   5.1900	  0.0000	 
  2.7000	   5.4600	  0.0000	 
  2.7000	   5.7300	  0.0000	 
  2.7000	   6.0000	  0.0000	 
  2.7000	   6.2700	  0.0000	 
  2.7000	   6.5400	  0.0000	 
  2.7000	   6.8100	  0.0000	 
  2.7000	   7.0800	  0.0000	 
  2.7000	   7.3500	  0.0000	 
  2.7000	   7.6200	  0.0000	 
  2.7000	   7.8900	  0.0000	 
  2.7000	   8.1600	  0.0000	 
  2.7000	   8.4300	  0.0000	 
  2.9250	   3.8175	  0.0000	 
  2.9250	   4.0600	  0.0000	 
  2.9250	   4.3025	  0.0000	 
  2.9250	   4.5450	  0.0000	 
  2.9250	   4.7875	  0.0000	 
  2.9250	   5.0300	  0.0000	 
  2.9250	   5.2725	  0.0000	 
  2.9250	   5.5150	  0.0000	 
  2.9250	   5.7575	  0.0000	 
  2.9250	   6.0000	  0.0000	 
  2.9250	   6.2425	  0.0000	 
  2.9250	   6.4850	  0.0000	 
  2.9250	   6.7275	  0.0000	 
  2.9250	   6.9700	  0.0000	 
  2.9250	   7.2125	  0.0000	 
  2.9250	   7.4550	  0.0000	 
  2.9250	   7.6975	  0.0000	 
  2.9250	   7.9400	  0.0000	 
  2.9250	   8.1825	  0.0000	 
  3.1500	   4.0650	  0.0000	 
  3.1500	   4.2800	  0.0000	 
  3.1500	   4.4950	  0.0000	 
  3.1500	   4.7100	  0.0000	 
  3.1500	   4.9250	  0.0000	 
  3.1500	   5.1400	  0.0000	 
  3.1500	   5.3550	  0.0000	 
  3.1500	   5.5700	  0.0000	 
  3.1500	   5.7850	  0.0000	 
  3.1500	   6.0000	  0.0000	 
  3.1500	   6.2150	  0.0000	 
  3.1500	   6.4300	  0.0000	 
  3.1500	   6.6450	  0.0000	 
  3.1500	   6.8600	  0.0000	 
  3.1500	   7.0750	  0.0000	 
  3.1500	   7.2900	  0.0000	 
  3.1500	   7.5050	  0.0000	 
  3.1500	   7.7200	  0.0000	 
  3.1500	   7.9350	  0.0000	 
  3.3750	   4.3125	  0.0000	 
  3.3750	   4.5000	  0.0000	 
  3.3750	   4.6875	  0.0000	 
  3.3750	   4.8750	  0.0000	 
  3.3750	   5.0625	  0.0000	 
  3.3750	   5.2500	  0.0000	 
  3.3750	   5.4375	  0.0000	 
  3.3750	   5.6250	  0.0000	 
  3.3750	   5.8125	  0.0000	 
  3.3750	   6.0000	  0.0000	 
  3.3750	   6.1875	  0.0000	 
  3.3750	   6.3750	  0.0000	 
  3.3750	   6.5625	  0.0000	 
  3.3750	   6.7500	  0.0000	 
  3.3750	   6.9375	  0.0000	 
  3.3750	   7.1250	  0.0000	 
  3.3750	   7.3125	  0.0000	 
  3.3750	   7.5000	  0.0000	 
  3.3750	   7.6875	  0.0000	 
  3.6000	   4.5600	  0.0000	 
  3.6000	   4.7200	  0.0000	 
  3.6000	   4.8800	  0.0000	 
  3.6000	   5.0400	  0.0000	 
  3.6000	   5.2000	  0.0000	 
  3.6000	   5.3600	  0.0000	 
  3.6000	   5.5200	  0.0000	 
  3.6000	   5.6800	  0.0000	 
  3.6000	   5.8400	  0.0000	 
  3.6000	   6.0000	  0.0000	 
  3.6000	   6.1600	  0.0000	 
  3.6000	   6.3200	  0.0000	 
  3.6000	   6.4800	  0.0000	 
  3.6000	   6.6400	  0.0000	 
  3.6000	   6.8000	  0.0000	 
  3.6000	   6.9600	  0.0000	 
  3.6000	   7.1200	  0.0000	 
  3.6000	   7.2800	  0.0000	 
  3.6000	   7.4400	  0.0000	 
  3.8250	   4.8075	  0.0000	 
  3.8250	   4.9400	  0.0000	 
  3.8250	   5.0725	  0.0000	 
  3.8250	   5.2050	  0.0000	 
  3.8250	   5.3375	  0.0000	 
  3.8250	   5.4700	  0.0000	 
  3.8250	   5.6025	  0.0000	 
[...]
POINT_DATA 	    1451 
VECTORS U float 
 50.0000	   0.0000	   0.0000	
 50.0000	   0.0000	   0.0000	
 50.0000	   0.0000	   0.0000	
 50.0000	   0.0000	   0.0000	
 50.0000	  -0.0000	   0.0000	
 50.0000	  -0.0000	   0.0000	
 50.0000	   0.0000	   0.0000	
 50.0000	  -0.0000	   0.0000	
 50.0000	  -0.0000	   0.0000	
 50.0000	   0.0000	   0.0000	
 50.0000	  -0.0000	   0.0000	
 50.0000	  -0.0000	   0.0000	
 50.0000	   0.0000	   0.0000	
 50.0000	   0.0000	   0.0000	
 50.0000	  -0.0000	   0.0000	
 50.0000	  -0.0000	   0.0000	
 50.0000	   0.0000	   0.0000	
 50.0000	   0.0000	   0.0000	
 50.0000	  -0.0000	   0.0000	
 47.6181	  14.2695	   0.0000	
 52.3343	  13.1429	   0.0000	
 48.9310	  22.0682	   0.0000	
 50.9047	  20.0052	   0.0000	
 50.2732	  18.1871	   0.0000	
 49.1453	  33.9161	   0.0000	
 48.4257	  45.5180	   0.0000	
 49.8669	  51.8968	   0.0000	
 49.3765	  55.9961	   0.0000	
 48.8981	  59.2108	   0.0000	
 50.7842	  61.1632	   0.0000	
 50.1314	  56.6060	   0.0000	
 50.9645	  51.9067	   0.0000	
 52.1452	  39.9545	   0.0000	
 49.5640	  34.9882	   0.0000	
 50.4778	  26.4462	   0.0000	
 50.2451	  28.5814	   0.0000	
 49.0551	  27.1314	   0.0000	
 51.1353	  24.6392	   0.0000	
 50.0467	  19.5073	   0.0000	
 42.3764	  34.0302	   0.0000	
 50.8279	  43.2162	   0.0000	
 50.5040	  34.8381	   0.0000	
 39.1324	  55.6573	   0.0000	
 41.4005	  54.6107	   0.0000	
 43.9133	  67.8363	   0.0000	
 46.8854	  75.3917	   0.0000	
 48.7039	  76.8232	   0.0000	
 48.3586	  77.7720	   0.0000	
 49.4462	  79.7283	   0.0000	
 52.4538	  84.1512	   0.0000	
 54.3612	  80.9174	   0.0000	
 59.8981	  70.2601	   0.0000	
 50.2900	  66.3121	   0.0000	
 57.5165	  64.1445	   0.0000	
 47.2024	  50.2890	   0.0000	
 51.6080	  52.0303	   0.0000	
 52.0262	  51.7866	   0.0000	
 39.5651	  35.0994	   0.0000	
 38.8921	  56.9305	   0.0000	
 60.5524	  47.2002	   0.0000	
 38.3143	  66.6211	   0.0000	
 46.6507	  58.3829	   0.0000	
 37.7686	  62.2951	   0.0000	
 43.2800	  64.0135	   0.0000	
 47.2620	  62.1552	   0.0000	
 47.1459	  66.3521	   0.0000	
 47.0687	  68.9430	   0.0000	
 49.5433	  72.1815	   0.0000	
 49.3328	  71.0604	   0.0000	
 52.7806	  79.6839	   0.0000	
 61.6038	  82.4222	   0.0000	
 53.1251	  83.2785	   0.0000	
 53.2233	  84.6003	   0.0000	
 58.6839	  83.6557	   0.0000	
 50.4388	  70.2349	   0.0000	
 48.5538	  70.9438	   0.0000	
 23.0725	  55.0247	   0.0000	
 55.5704	  50.2766	   0.0000	
 39.9599	  74.3258	   0.0000	
 43.2305	  63.9483	   0.0000	
 42.7841	  67.9252	   0.0000	
 37.5007	  63.7682	   0.0000	
 43.9104	  66.4050	   0.0000	
 45.9256	  69.5729	   0.0000	
 46.4619	  71.3264	   0.0000	
 46.5292	  72.9339	   0.0000	
 47.5252	  73.9493	   0.0000	
 49.6394	  78.1022	   0.0000	
 49.3082	  77.4751	   0.0000	
 59.2165	  79.9897	   0.0000	
 54.8907	  88.5915	   0.0000	
 50.3419	  90.4254	   0.0000	
 58.9971	  96.2485	   0.0000	
 57.0700	  94.9875	   0.0000	
 50.0585	  81.8687	   0.0000	
 44.5461	  51.1727	   0.0000	
 38.3530	  69.7918	   0.0000	
 46.6938	  69.2873	   0.0000	
 42.4447	  68.9989	   0.0000	
 43.5448	  66.5550	   0.0000	
 38.5173	  62.6738	   0.0000	
 42.6857	  65.7702	   0.0000	
 45.1510	  67.3729	   0.0000	
 44.9287	  70.5558	   0.0000	
 45.3471	  72.8458	   0.0000	
 47.8504	  75.0846	   0.0000	
 47.2934	  74.3232	   0.0000	
 49.6320	  79.2872	   0.0000	
 55.6849	  76.6062	   0.0000	
 51.9062	  84.0005	   0.0000	
 49.1878	  93.1303	   0.0000	
 52.5690	  93.6767	   0.0000	
 59.0163	 101.3188	   0.0000	
 61.7638	 102.8589	   0.0000	
 41.5027	  65.0955	   0.0000	
 37.8704	  62.6070	   0.0000	
 46.0487	  67.5578	   0.0000	
 44.0290	  63.0350	   0.0000	
 42.9177	  65.5755	   0.0000	
 38.1220	  64.1618	   0.0000	
 42.8549	  66.0616	   0.0000	
 43.6822	  68.4460	   0.0000	
 44.1963	  70.9347	   0.0000	
 44.3552	  72.3984	   0.0000	
 46.1940	  75.1023	   0.0000	
 47.7705	  77.3472	   0.0000	
 46.2732	  77.6843	   0.0000	
 55.4242	  81.1050	   0.0000	
 50.6954	  83.6904	   0.0000	
 45.9567	  86.8156	   0.0000	
 50.2569	  90.5031	   0.0000	
 52.2676	  93.4977	   0.0000	
 54.8508	 105.3582	   0.0000	
 42.9949	  61.3804	   0.0000	
 39.5998	  55.7825	   0.0000	
 47.0384	  62.0670	   0.0000	
 41.7011	  62.4644	   0.0000	
 41.8051	  66.1571	   0.0000	
 38.2621	  64.0709	   0.0000	
 41.4020	  67.6969	   0.0000	
 42.5205	  70.0260	   0.0000	
 42.7122	  72.6485	   0.0000	
 43.5141	  74.4470	   0.0000	
 45.3404	  75.5615	   0.0000	
 46.1047	  77.3311	   0.0000	
 46.8316	  79.7147	   0.0000	
 50.9885	  77.1760	   0.0000	
 51.1863	  85.2158	   0.0000	
 47.0385	  84.6049	   0.0000	
 46.1046	  82.7129	   0.0000	
 50.6084	  86.0190	   0.0000	
 46.4401	  90.4397	   0.0000	
 43.0724	  61.6715	   0.0000	
 39.8917	  58.4859	   0.0000	
 44.6463	  65.2544	   0.0000	
 39.1118	  65.5046	   0.0000	
 42.0755	  66.7550	   0.0000	
 37.2905	  65.5500	   0.0000	
 40.7216	  68.1968	   0.0000	
 41.2226	  69.6064	   0.0000	
 41.9573	  71.8578	   0.0000	
 42.0738	  73.7603	   0.0000	
 44.5149	  76.5358	   0.0000	
 44.8627	  77.0999	   0.0000	
 45.2747	  80.0726	   0.0000	
 51.2770	  80.1152	   0.0000	
 46.8056	  82.0454	   0.0000	
 49.6206	  87.7740	   0.0000	
 47.7052	  84.7440	   0.0000	
 46.4700	  84.2262	   0.0000	
 47.1978	  90.8383	   0.0000	
 43.2891	  60.3139	   0.0000	
 38.3279	  58.4252	   0.0000	
 42.5771	  65.4930	   0.0000	
 39.4694	  62.2526	   0.0000	
 40.5471	  66.5223	   0.0000	
 36.6695	  66.2029	   0.0000	
 39.8712	  68.8055	   0.0000	
 39.8047	  71.2484	   0.0000	
 40.4114	  74.0280	   0.0000	
 41.0054	  75.7398	   0.0000	
 43.1822	  77.4731	   0.0000	
 44.5177	  79.2934	   0.0000	
 43.6600	  79.7132	   0.0000	
 49.1796	  80.3371	   0.0000	
 47.9939	  83.5580	   0.0000	
 44.8545	  82.6034	   0.0000	
 49.7061	  86.8705	   0.0000	
 47.5096	  86.0295	   0.0000	
 41.6275	  90.0053	   0.0000	
 41.3360	  60.7941	   0.0000	
 35.8128	  59.2534	   0.0000	
 43.4827	  63.9160	   0.0000	
 36.5437	  62.6443	   0.0000	
 39.2832	  66.7836	   0.0000	
 35.8321	  65.7766	   0.0000	
 38.3465	  69.3759	   0.0000	
 38.0804	  71.4502	   0.0000	
 39.4128	  73.6824	   0.0000	
 39.5255	  75.3948	   0.0000	
 41.9968	  77.4280	   0.0000	
 42.8118	  78.6824	   0.0000	
 43.8714	  81.1336	   0.0000	
 47.1010	  78.8519	   0.0000	
 46.5910	  82.6408	   0.0000	
 47.9600	  82.3646	   0.0000	
 43.4437	  81.6331	   0.0000	
 49.9102	  86.2245	   0.0000	
 43.7656	  86.7790	   0.0000	
 38.2242	  62.1578	   0.0000	
 37.9362	  59.5164	   0.0000	
 40.7202	  65.0518	   0.0000	
 34.4983	  63.6888	   0.0000	
 38.7569	  67.2603	   0.0000	
 33.8025	  67.8589	   0.0000	
 36.8975	  71.1126	   0.0000	
 36.5669	  72.9709	   0.0000	
 37.9834	  75.4176	   0.0000	
 37.8670	  77.5947	   0.0000	
 41.0965	  79.7097	   0.0000	
 41.6853	  80.4337	   0.0000	
 42.4417	  81.7102	   0.0000	
 47.5679	  81.4381	   0.0000	
 44.4361	  82.1020	   0.0000	
 47.8749	  82.8247	   0.0000	
 45.9738	  83.9546	   0.0000	
 42.4313	  84.7850	   0.0000	
 47.8488	  89.5181	   0.0000	
 40.1646	  61.3086	   0.0000	
 34.6997	  60.4077	   0.0000	
 39.0178	  66.1415	   0.0000	
 33.3409	  62.4074	   0.0000	
 36.3407	  67.4893	   0.0000	
 32.1224	  67.1673	   0.0000	
 35.5747	  70.4807	   0.0000	
 34.6283	  72.4627	   0.0000	
 36.2709	  75.4838	   0.0000	
 36.0900	  77.2502	   0.0000	
 39.0587	  79.7708	   0.0000	
 40.9204	  81.8539	   0.0000	
 41.7900	  82.4721	   0.0000	
 45.4766	  81.2418	   0.0000	
 45.6144	  84.2447	   0.0000	
 45.5068	  82.4451	   0.0000	
 44.8682	  87.2080	   0.0000	
 46.1543	  87.1573	   0.0000	
 38.5791	  87.8357	   0.0000	
 35.8742	  58.7958	   0.0000	
 31.9644	  59.6482	   0.0000	
 38.9036	  66.1418	   0.0000	
 29.7967	  64.7638	   0.0000	
 34.7922	  70.1664	   0.0000	
 30.5389	  69.7636	   0.0000	
 33.4628	  73.0971	   0.0000	
 31.9153	  76.2515	   0.0000	
 34.7335	  78.7884	   0.0000	
 34.6937	  80.1489	   0.0000	
 37.3435	  80.9839	   0.0000	
 38.0954	  82.9023	   0.0000	
 41.7183	  85.2592	   0.0000	
 45.1695	  83.3276	   0.0000	
 43.1321	  84.8887	   0.0000	
 47.3599	  84.3418	   0.0000	
 40.7366	  86.3715	   0.0000	
 47.4420	  84.1138	   0.0000	
 46.9796	  78.3756	   0.0000	
 30.7363	  58.9805	   0.0000	
 31.0175	  59.6446	   0.0000	
 32.9958	  66.1465	   0.0000	
 27.3771	  63.8798	   0.0000	
 33.0390	  69.0549	   0.0000	
 28.3207	  68.8629	   0.0000	
 29.8117	  73.6233	   0.0000	
 29.8162	  75.2985	   0.0000	
 33.1804	  77.7846	   0.0000	
 30.9988	  80.9901	   0.0000	
 37.5292	  84.3153	   0.0000	
 35.7249	  83.3142	   0.0000	
 39.0424	  84.7082	   0.0000	
 45.0693	  84.4797	   0.0000	
 42.7169	  86.2593	   0.0000	
 45.6209	  84.7475	   0.0000	
 43.8582	  88.3182	   0.0000	
 46.7957	  81.9319	   0.0000	
 52.1140	  76.0531	   0.0000	
 27.1613	  57.9391	   0.0000	
 26.4940	  63.7919	   0.0000	
 29.3984	  69.0065	   0.0000	
 26.9153	  68.6869	   0.0000	
 30.4636	  72.2819	   0.0000	
 24.2030	  71.9281	   0.0000	
 28.6545	  73.8300	   0.0000	
 28.1457	  74.6751	   0.0000	
 29.4790	  78.0793	   0.0000	
 27.3753	  81.3631	   0.0000	
 32.9833	  84.9480	   0.0000	
 37.3696	  88.1785	   0.0000	
 37.9232	  86.5560	   0.0000	
 39.6276	  87.6484	   0.0000	
 42.0735	  94.0857	   0.0000	
 44.3308	  94.0415	   0.0000	
 42.9903	  94.1243	   0.0000	
 54.0152	  86.0776	   0.0000	
 52.7174	  76.6504	   0.0000	
 21.2616	  56.5661	   0.0000	
 26.4957	  62.1273	   0.0000	
 18.3029	  67.6141	   0.0000	
 25.8900	  75.3844	   0.0000	
 26.1980	  79.7175	   0.0000	
 25.7040	  78.6775	   0.0000	
 27.7837	  79.4483	   0.0000	
 23.7973	  81.6520	   0.0000	
 25.0222	  85.5439	   0.0000	
 26.1116	  86.1452	   0.0000	
 27.6315	  86.5802	   0.0000	
 30.2286	  91.8976	   0.0000	
 39.6791	  96.0312	   0.0000	
 36.5809	  94.5575	   0.0000	
 29.8567	 101.2860	   0.0000	
 42.9452	 100.2204	   0.0000	
 52.1444	  92.1249	   0.0000	
 48.1605	  86.1249	   0.0000	
 62.5766	  74.2090	   0.0000	
 11.5269	  54.4610	   0.0000	
  9.3950	  60.7565	   0.0000	
 18.2153	  65.7636	   0.0000	
 19.4686	  70.9496	   0.0000	
 26.0337	  74.8331	   0.0000	
 27.6647	  73.2710	   0.0000	
 22.3709	  74.1996	   0.0000	
 18.9680	  75.9019	   0.0000	
 24.6541	  76.5294	   0.0000	
 19.4989	  80.0814	   0.0000	
 27.1929	  84.5938	   0.0000	
 19.1260	  86.0871	   0.0000	
 24.8745	  94.7279	   0.0000	
 42.8109	  97.9494	   0.0000	
 22.9034	 105.7974	   0.0000	
 33.3289	 110.8811	   0.0000	
 47.1306	 102.4308	   0.0000	
 62.6518	  95.6775	   0.0000	
 66.7931	  83.5201	   0.0000	
  4.1718	  55.6735	   0.0000	
  7.3216	  66.9174	   0.0000	
 12.1069	  74.3924	   0.0000	
 27.8609	  81.2304	   0.0000	
 32.4825	  83.1517	   0.0000	
 17.5298	  79.8300	   0.0000	
 16.6697	  85.7927	   0.0000	
 17.5527	  89.2099	   0.0000	
 17.0566	  94.8012	   0.0000	
 14.0089	  99.0913	   0.0000	
 15.8092	 101.3190	   0.0000	
 16.3572	 108.8852	   0.0000	
  5.4862	 113.6880	   0.0000	
 19.7875	 118.3238	   0.0000	
 18.6967	 131.1389	   0.0000	
 10.6729	 140.8183	   0.0000	
 27.8932	 134.1636	   0.0000	
 67.2931	 111.9487	   0.0000	
 75.2843	  86.1776	   0.0000	
 -3.6286	  42.4505	   0.0000	
  4.6611	  50.4268	   0.0000	
 17.7295	  58.1531	   0.0000	
 24.6675	  67.2252	   0.0000	
  1.6305	  73.0809	   0.0000	
  1.4401	  75.4739	   0.0000	
  9.2368	  80.1692	   0.0000	
 -1.1705	  83.7429	   0.0000	
  8.9823	  87.1384	   0.0000	
 -1.0372	  90.7169	   0.0000	
 10.9444	  94.4896	   0.0000	
 -3.3292	  98.3670	   0.0000	
  9.5684	  99.9105	   0.0000	
 -2.0696	 103.4013	   0.0000	
  0.8258	 103.2562	   0.0000	
 -1.8857	 108.9014	   0.0000	
  3.0101	 108.2276	   0.0000	
 24.9705	 105.5905	   0.0000	
 63.7477	  94.3106	   0.0000	
 -0.0000	  -0.0000	   0.0000	
  0.0000	   0.0000	   0.0000	
 -0.0000	   0.0000	   0.0000	
 -0.0000	   0.0000	   0.0000	
  0.0000	  -0.0000	   0.0000	
 -0.0000	   0.0000	   0.0000	
  0.0000	   0.0000	   0.0000	
  0.0000	  -0.0000	   0.0000	
 -0.0000	  -0.0000	   0.0000	
  0.0000	   0.0000	   0.0000	
  0.0000	   0.0000	   0.0000	
  0.0000	  -0.0000	   0.0000	
 -0.0000	  -0.0000	   0.0000	
 -0.0000	   0.0000	   0.0000	
 -0.0000	  -0.0000	   0.0000	
 -0.0000	  -0.0000	   0.0000	
  0.0000	  -0.0000	   0.0000	
 -0.0000	  -0.0000	   0.0000	
  0.0000	   0.0000	   0.0000	
 50.0000	  50.0000	   0.0000	
 50.0000	  -0.0000	   0.0000	
 71.1371	  49.4115	   0.0000	
 49.7140	  17.5192	   0.0000	
 78.6034	  51.6623	   0.0000	
 54.4969	  35.9378	   0.0000	
 76.4471	  54.7301	   0.0000	
 66.5729	  56.2249	   0.0000	
 69.8617	  60.8713	   0.0000	
 65.7568	  71.4764	   0.0000	
 40.0082	  78.5782	   0.0000	
 56.4304	  81.1033	   0.0000	
 48.6893	  70.9816	   0.0000	
 72.4820	  99.8247	   0.0000	
 45.8392	  71.6117	   0.0000	
 63.3315	  90.3970	   0.0000	
 48.7155	  66.6326	   0.0000	
 52.6514	  81.9180	   0.0000	
 47.4161	  65.6097	   0.0000	
 56.0677	  81.4910	   0.0000	
 46.8288	  63.6279	   0.0000	
 51.2266	  76.7089	   0.0000	
 43.2572	  63.3769	   0.0000	
 53.4579	  76.1002	   0.0000	
 39.4834	  62.7846	   0.0000	
 60.0211	  76.7803	   0.0000	
 40.5676	  58.8349	   0.0000	
 47.5194	  68.6638	   0.0000	
 34.5403	  57.1234	   0.0000	
 55.0863	  69.3199	   0.0000	
 29.2332	  54.8471	   0.0000	
 59.2604	  67.5522	   0.0000	
 19.5220	  53.0534	   0.0000	
 65.0953	  65.6558	   0.0000	
 16.3513	  45.1729	   0.0000	
 74.6414	  62.5431	   0.0000	
 -6.2588	  43.2864	   0.0000	
 93.4781	  61.5415	   0.0000	
-16.7758	  32.3935	   0.0000	
123.6026	  63.0716	   0.0000	
 -0.0000	   0.0000	   0.0000	
 -0.0000	  -0.0000	   0.0000	
 50.9246	  50.0000	   0.0000	
 93.0226	 165.6197	   0.0000	
 45.8978	  49.7174	   0.0000	
 55.0067	 146.3817	   0.0000	
 43.5682	  50.5725	   0.0000	
 33.7246	 129.3741	   0.0000	
 40.1495	  49.8194	   0.0000	
 20.7996	 115.3705	   0.0000	
 43.7162	  47.9680	   0.0000	
 21.1560	 109.6496	   0.0000	
 45.6495	  46.6886	   0.0000	
 18.9488	 104.1858	   0.0000	
 43.1336	  47.1312	   0.0000	
 22.8356	 101.5192	   0.0000	
 43.6987	  47.0014	   0.0000	
 21.5406	  96.6594	   0.0000	
 42.9909	  46.3634	   0.0000	
 22.8728	  92.5687	   0.0000	
 41.1617	  46.2730	   0.0000	
 24.3387	  88.2155	   0.0000	
 39.3184	  45.9083	   0.0000	
 33.5771	  87.1454	   0.0000	
 44.9418	  42.9285	   0.0000	
 24.5385	  79.1830	   0.0000	
 40.4096	  43.2933	   0.0000	
 31.3412	  77.1674	   0.0000	
 41.0439	  40.7282	   0.0000	
 33.3017	  72.7131	   0.0000	
 40.1870	  36.6069	   0.0000	
 34.8869	  66.7949	   0.0000	
 41.3240	  31.8588	   0.0000	
 38.0762	  58.3265	   0.0000	
 33.9720	  28.7308	   0.0000	
 47.1962	  50.8480	   0.0000	
 19.4149	  23.9837	   0.0000	
 69.6999	  43.6494	   0.0000	
 43.5327	   2.9773	   0.0000	
 60.1672	  21.9612	   0.0000	
 30.4870	  -0.2245	   0.0000	
 -4.3035	  -2.3372	   0.0000	
 -0.0000	   0.0000	   0.0000	
 -0.0000	  -0.0000	   0.0000	
 48.6680	  50.0000	   0.0000	
-47.3551	  63.7908	   0.0000	
 50.6295	  50.2979	   0.0000	
-14.0149	  65.8238	   0.0000	
 45.5546	  50.6489	   0.0000	
  0.5258	  65.8507	   0.0000	
 43.4133	  52.3208	   0.0000	
  7.3385	  65.7687	   0.0000	
 44.7421	  52.3639	   0.0000	
  9.3080	  64.5435	   0.0000	
 43.8502	  53.0516	   0.0000	
  9.0440	  63.4780	   0.0000	
 45.4896	  53.7218	   0.0000	
 10.1711	  62.5637	   0.0000	
 45.6089	  53.7066	   0.0000	
 11.7920	  61.2252	   0.0000	
 44.6493	  54.5056	   0.0000	
 15.0655	  60.1333	   0.0000	
 43.4584	  55.6143	   0.0000	
 18.2431	  59.4121	   0.0000	
 46.0286	  55.7652	   0.0000	
 15.0294	  58.0500	   0.0000	
 47.7167	  56.6571	   0.0000	
 16.6399	  56.4496	   0.0000	
 52.9919	  57.1721	   0.0000	
 16.8467	  54.4445	   0.0000	
 54.2746	  58.6291	   0.0000	
  7.9972	  51.9308	   0.0000	
 56.7187	  59.9432	   0.0000	
  9.7488	  50.5149	   0.0000	
 64.2153	  59.3046	   0.0000	
  6.2458	  46.0179	   0.0000	
 64.5152	  59.4922	   0.0000	
 14.5679	  42.1261	   0.0000	
 75.4139	  62.0368	   0.0000	
 18.8951	  38.8532	   0.0000	
 73.5903	  62.2093	   0.0000	
 -3.9327	  39.9842	   0.0000	
 47.7078	  62.9019	   0.0000	
 -1.9178	  46.0069	   0.0000	
 25.3164	  62.1900	   0.0000	
  4.4991	  49.4864	   0.0000	
 45.6988	  50.0000	   0.0000	
  9.7337	  52.9092	   0.0000	
 40.4855	  49.8911	   0.0000	
 -2.3741	  57.9217	   0.0000	
 40.2979	  50.3226	   0.0000	
  3.5516	  58.3793	   0.0000	
 38.1948	  49.8990	   0.0000	
  5.3555	  58.2349	   0.0000	
 39.0446	  50.3332	   0.0000	
  6.7857	  58.3246	   0.0000	
 40.4573	  50.8399	   0.0000	
  6.4135	  58.7406	   0.0000	
 38.9338	  50.7049	   0.0000	
 10.9481	  57.8459	   0.0000	
 39.7160	  51.5059	   0.0000	
  9.2723	  59.1296	   0.0000	
 40.1657	  52.0690	   0.0000	
 11.7926	  58.5663	   0.0000	
 37.4101	  52.0592	   0.0000	
 13.2003	  58.2767	   0.0000	
 42.1799	  53.0033	   0.0000	
 14.0880	  58.4492	   0.0000	
 38.5098	  52.9756	   0.0000	
 15.7093	  57.7368	   0.0000	
 38.0561	  54.4503	   0.0000	
 13.1431	  59.1903	   0.0000	
 42.4061	  56.9417	   0.0000	
 14.7771	  60.3043	   0.0000	
 39.3658	  57.9230	   0.0000	
 15.4504	  60.5918	   0.0000	
 43.3512	  62.2955	   0.0000	
  9.2478	  64.3128	   0.0000	
 41.3335	  66.0819	   0.0000	
  9.9689	  65.6918	   0.0000	
 40.6621	  71.9254	   0.0000	
 13.0134	  67.0697	   0.0000	
 44.9690	  79.3750	   0.0000	
 23.2285	  64.5690	   0.0000	
 37.6984	  89.1206	   0.0000	
 19.5033	  73.2855	   0.0000	
 14.4411	  91.5492	   0.0000	
 24.1204	  76.5043	   0.0000	
 41.4187	  50.0000	   0.0000	
 -1.3376	  45.7099	   0.0000	
 42.2764	  50.1516	   0.0000	
  2.2382	  45.0602	   0.0000	
 41.7831	  50.7380	   0.0000	
  4.5760	  44.3057	   0.0000	
 40.4973	  50.1673	   0.0000	
  7.6861	  43.6732	   0.0000	
 41.8729	  50.7637	   0.0000	
  7.8245	  44.1758	   0.0000	
 41.1900	  50.0927	   0.0000	
  5.3434	  46.6545	   0.0000	
 41.1803	  50.0901	   0.0000	
  7.2843	  46.4221	   0.0000	
 40.5181	  49.7500	   0.0000	
  6.9907	  48.0147	   0.0000	
 40.2200	  49.8219	   0.0000	
  9.4855	  47.8216	   0.0000	
 38.8588	  49.2913	   0.0000	
 11.2320	  47.8263	   0.0000	
 39.2070	  49.8572	   0.0000	
  9.7304	  49.6543	   0.0000	
 38.8638	  49.8004	   0.0000	
 12.8723	  48.8629	   0.0000	
 39.6109	  50.8778	   0.0000	
 13.0410	  49.6668	   0.0000	
 37.0092	  49.7613	   0.0000	
 13.9869	  49.8956	   0.0000	
 38.1042	  50.9428	   0.0000	
 14.7121	  50.7098	   0.0000	
 37.0705	  51.3022	   0.0000	
 15.9322	  50.8257	   0.0000	
 35.0024	  51.5378	   0.0000	
 17.0382	  51.6661	   0.0000	
 37.1108	  54.5812	   0.0000	
 15.0967	  55.7375	   0.0000	
 31.0637	  53.4751	   0.0000	
 22.1794	  55.9397	   0.0000	
 34.4097	  57.7144	   0.0000	
 17.7952	  59.8969	   0.0000	
 11.8280	  55.6103	   0.0000	
 36.2706	  54.5067	   0.0000	
 48.8494	  50.0000	   0.0000	
  0.1401	  28.9633	   0.0000	
 46.6771	  49.3002	   0.0000	
  1.4940	  30.4470	   0.0000	
 44.2960	  48.5690	   0.0000	
  2.7873	  31.8821	   0.0000	
 43.8197	  48.2962	   0.0000	
  3.6022	  33.5878	   0.0000	
 45.6412	  48.8828	   0.0000	
  6.0487	  34.4722	   0.0000	
 45.4042	  48.4465	   0.0000	
  7.2197	  36.1703	   0.0000	
 41.6207	  45.6735	   0.0000	
  7.7029	  37.7512	   0.0000	
 41.2405	  45.8243	   0.0000	
  8.5104	  38.2508	   0.0000	
 40.7734	  46.4982	   0.0000	
  9.9096	  38.3836	   0.0000	
 39.3856	  46.9080	   0.0000	
 11.4585	  39.7032	   0.0000	
 38.5257	  47.1251	   0.0000	
 13.1177	  40.9898	   0.0000	
 37.6045	  47.8722	   0.0000	
 14.3064	  42.2663	   0.0000	
 36.1150	  47.9423	   0.0000	
 15.9717	  43.6820	   0.0000	
 36.2616	  49.4988	   0.0000	
 15.3413	  46.2945	   0.0000	
 35.0273	  49.5792	   0.0000	
 17.3055	  46.5440	   0.0000	
 32.9061	  50.6911	   0.0000	
 18.9684	  48.0459	   0.0000	
 32.7934	  51.4768	   0.0000	
 20.7410	  48.8886	   0.0000	
 32.3097	  52.8636	   0.0000	
 19.9149	  51.2279	   0.0000	
 29.3632	  52.7742	   0.0000	
 22.2211	  51.8178	   0.0000	
 29.4417	  54.1041	   0.0000	
 25.0208	  51.2905	   0.0000	
 25.1063	  53.4350	   0.0000	
 23.8337	  54.7356	   0.0000	
  0.0000	   0.0000	   0.0000	
  0.0000	   0.0000	   0.0000	
 -0.0000	   0.0000	   0.0000	
  0.0000	  -0.0000	   0.0000	
 -0.0000	   0.0000	   0.0000	
  0.0000	   0.0000	   0.0000	
 -0.0000	   0.0000	   0.0000	
 -0.0000	  -0.0000	   0.0000	
 -0.0000	  -0.0000	   0.0000	
 -0.0000	   0.0000	   0.0000	
 -0.0000	  -0.0000	   0.0000	
 -0.0000	  -0.0000	   0.0000	
 -0.0000	   0.0000	   0.0000	
 -0.0000	  -0.0000	   0.0000	