# vtk DataFile Version 3.0 
Results 
ASCII 
DATASET UNSTRUCTURED_GRID 
POINTS 	     299 float 
  0.0000	   1.5000	  0.0000	 
  0.0000	   3.0000	  0.0000	 
  0.0000	   4.5000	  0.0000	 
  0.0000	   6.0000	  0.0000	 
  0.0000	   7.5000	  0.0000	 
  0.0000	   9.0000	  0.0000	 
  0.0000	  10.5000	  0.0000	 
  0.5625	   2.0156	  0.0000	 
  0.5625	   3.3438	  0.0000	 
  0.5625	   4.6719	  0.0000	 
  0.5625	   6.0000	  0.0000	 
  0.5625	   7.3281	  0.0000	 
  0.5625	   8.6562	  0.0000	 
  0.5625	   9.9844	  0.0000	 
  1.1250	   2.5312	  0.0000	 
  1.1250	   3.6875	  0.0000	 
  1.1250	   4.8438	  0.0000	 
  1.1250	   6.0000	  0.0000	 
  1.1250	   7.1562	  0.0000	 
  1.1250	   8.3125	  0.0000	 
  1.1250	   9.4688	  0.0000	 
  1.6875	   3.0469	  0.0000	 
  1.6875	   4.0312	  0.0000	 
  1.6875	   5.0156	  0.0000	 
  1.6875	   6.0000	  0.0000	 
  1.6875	   6.9844	  0.0000	 
  1.6875	   7.9688	  0.0000	 
  1.6875	   8.9531	  0.0000	 
  2.2500	   3.5625	  0.0000	 
  2.2500	   4.3750	  0.0000	 
  2.2500	   5.1875	  0.0000	 
  2.2500	   6.0000	  0.0000	 
  2.2500	   6.8125	  0.0000	 
  2.2500	   7.6250	  0.0000	 
  2.2500	   8.4375	  0.0000	 
  2.8125	   4.0781	  0.0000	 
  2.8125	   4.7188	  0.0000	 
  2.8125	   5.3594	  0.0000	 
  2.8125	   6.0000	  0.0000	 
  2.8125	   6.6406	  0.0000	 
  2.8125	   7.2812	  0.0000	 
  2.8125	   7.9219	  0.0000	 
  3.3750	   4.5938	  0.0000	 
  3.3750	   5.0625	  0.0000	 
  3.3750	   5.5312	  0.0000	 
  3.3750	   6.0000	  0.0000	 
  3.3750	   6.4688	  0.0000	 
  3.3750	   6.9375	  0.0000	 
  3.3750	   7.4062	  0.0000	 
  3.9375	   5.1094	  0.0000	 
  3.9375	   5.4062	  0.0000	 
  3.9375	   5.7031	  0.0000	 
  3.9375	   6.0000	  0.0000	 
  3.9375	   6.2969	  0.0000	 
  3.9375	   6.5938	  0.0000	 
  3.9375	   6.8906	  0.0000	 
  4.5000	   5.6250	  0.0000	 
  4.5000	   5.7500	  0.0000	 
  4.5000	   5.8750	  0.0000	 
  4.5000	   6.0000	  0.0000	 
  4.5000	   6.1250	  0.0000	 
  4.5000	   6.2500	  0.0000	 
  4.5000	   6.3750	  0.0000	 
  0.0000	   0.0000	  0.0000	 
  0.0000	  12.0000	  0.0000	 
  0.5625	   0.6875	  0.0000	 
  0.5625	  11.3125	  0.0000	 
  1.1250	   1.3750	  0.0000	 
  1.1250	  10.6250	  0.0000	 
  1.6875	   2.0625	  0.0000	 
  1.6875	   9.9375	  0.0000	 
  2.2500	   2.7500	  0.0000	 
  2.2500	   9.2500	  0.0000	 
  2.8125	   3.4375	  0.0000	 
  2.8125	   8.5625	  0.0000	 
  3.3750	   4.1250	  0.0000	 
  3.3750	   7.8750	  0.0000	 
  3.9375	   4.8125	  0.0000	 
  3.9375	   7.1875	  0.0000	 
  4.5000	   5.5000	  0.0000	 
  4.5000	   6.5000	  0.0000	 
  2.8000	   0.0000	  0.0000	 
  2.8000	  12.0000	  0.0000	 
  3.1375	   0.6875	  0.0000	 
  3.1375	  11.3125	  0.0000	 
  3.4750	   1.3750	  0.0000	 
  3.4750	  10.6250	  0.0000	 
  3.8125	   2.0625	  0.0000	 
  3.8125	   9.9375	  0.0000	 
  4.1500	   2.7500	  0.0000	 
  4.1500	   9.2500	  0.0000	 
  4.4875	   3.4375	  0.0000	 
  4.4875	   8.5625	  0.0000	 
  4.8250	   4.1250	  0.0000	 
  4.8250	   7.8750	  0.0000	 
  5.1625	   4.8125	  0.0000	 
  5.1625	   7.1875	  0.0000	 
  5.5000	   5.5000	  0.0000	 
  5.5000	   6.5000	  0.0000	 
  5.6000	   0.0000	  0.0000	 
  5.6000	  12.0000	  0.0000	 
  5.7125	   0.6875	  0.0000	 
  5.7125	  11.3125	  0.0000	 
  5.8250	   1.3750	  0.0000	 
  5.8250	  10.6250	  0.0000	 
  5.9375	   2.0625	  0.0000	 
  5.9375	   9.9375	  0.0000	 
  6.0500	   2.7500	  0.0000	 
  6.0500	   9.2500	  0.0000	 
  6.1625	   3.4375	  0.0000	 
  6.1625	   8.5625	  0.0000	 
  6.2750	   4.1250	  0.0000	 
  6.2750	   7.8750	  0.0000	 
  6.3875	   4.8125	  0.0000	 
  6.3875	   7.1875	  0.0000	 
  6.5000	   5.5000	  0.0000	 
  6.5000	   6.5000	  0.0000	 
  8.4000	   0.0000	  0.0000	 
  8.4000	  12.0000	  0.0000	 
  8.2875	   0.6875	  0.0000	 
  8.2875	  11.3125	  0.0000	 
  8.1750	   1.3750	  0.0000	 
  8.1750	  10.6250	  0.0000	 
  8.0625	   2.0625	  0.0000	 
  8.0625	   9.9375	  0.0000	 
  7.9500	   2.7500	  0.0000	 
  7.9500	   9.2500	  0.0000	 
  7.8375	   3.4375	  0.0000	 
  7.8375	   8.5625	  0.0000	 
  7.7250	   4.1250	  0.0000	 
  7.7250	   7.8750	  0.0000	 
  7.6125	   4.8125	  0.0000	 
  7.6125	   7.1875	  0.0000	 
  7.5000	   5.5000	  0.0000	 
  7.5000	   6.5000	  0.0000	 
 11.2000	   0.0000	  0.0000	 
 11.2000	  12.0000	  0.0000	 
 10.8625	   0.6875	  0.0000	 
 10.8625	  11.3125	  0.0000	 
 10.5250	   1.3750	  0.0000	 
 10.5250	  10.6250	  0.0000	 
 10.1875	   2.0625	  0.0000	 
 10.1875	   9.9375	  0.0000	 
  9.8500	   2.7500	  0.0000	 
  9.8500	   9.2500	  0.0000	 
  9.5125	   3.4375	  0.0000	 
  9.5125	   8.5625	  0.0000	 
  9.1750	   4.1250	  0.0000	 
  9.1750	   7.8750	  0.0000	 
  8.8375	   4.8125	  0.0000	 
  8.8375	   7.1875	  0.0000	 
  8.5000	   5.5000	  0.0000	 
  8.5000	   6.5000	  0.0000	 
 14.0000	   0.0000	  0.0000	 
 14.0000	  12.0000	  0.0000	 
 13.4375	   0.6875	  0.0000	 
 13.4375	  11.3125	  0.0000	 
 12.8750	   1.3750	  0.0000	 
 12.8750	  10.6250	  0.0000	 
 12.3125	   2.0625	  0.0000	 
 12.3125	   9.9375	  0.0000	 
 11.7500	   2.7500	  0.0000	 
 11.7500	   9.2500	  0.0000	 
 11.1875	   3.4375	  0.0000	 
 11.1875	   8.5625	  0.0000	 
 10.6250	   4.1250	  0.0000	 
 10.6250	   7.8750	  0.0000	 
 10.0625	   4.8125	  0.0000	 
 10.0625	   7.1875	  0.0000	 
  9.5000	   5.5000	  0.0000	 
  9.5000	   6.5000	  0.0000	 
  5.5000	   5.5000	  0.0000	 
  5.5000	   6.5000	  0.0000	 
  5.5000	   5.6567	  0.0000	 
  5.5000	   6.3433	  0.0000	 
  5.5000	   5.8133	  0.0000	 
  5.5000	   6.1867	  0.0000	 
  6.5000	   5.5000	  0.0000	 
  6.5000	   6.5000	  0.0000	 
  6.5000	   5.6567	  0.0000	 
  6.5000	   6.3433	  0.0000	 
  6.5000	   5.8133	  0.0000	 
  6.5000	   6.1867	  0.0000	 
  7.5000	   5.5000	  0.0000	 
  7.5000	   6.5000	  0.0000	 
  7.5000	   5.6567	  0.0000	 
  7.5000	   6.3433	  0.0000	 
  7.5000	   5.8133	  0.0000	 
  7.5000	   6.1867	  0.0000	 
  8.5000	   5.5000	  0.0000	 
  8.5000	   6.5000	  0.0000	 
  8.5000	   5.6567	  0.0000	 
  8.5000	   6.3433	  0.0000	 
  8.5000	   5.8133	  0.0000	 
  8.5000	   6.1867	  0.0000	 
  9.5000	   5.5000	  0.0000	 
  9.5000	   6.5000	  0.0000	 
  9.5000	   5.6567	  0.0000	 
  9.5000	   6.3433	  0.0000	 
  9.5000	   5.8133	  0.0000	 
  9.5000	   6.1867	  0.0000	 
  5.5000	   5.9700	  0.0000	 
  5.5000	   6.0000	  0.0000	 
  5.5000	   6.0300	  0.0000	 
  6.5000	   5.9700	  0.0000	 
  6.5000	   6.0000	  0.0000	 
  6.5000	   6.0300	  0.0000	 
  7.5000	   5.9700	  0.0000	 
  7.5000	   6.0000	  0.0000	 
  7.5000	   6.0300	  0.0000	 
  8.5000	   5.9700	  0.0000	 
  8.5000	   6.0000	  0.0000	 
  8.5000	   6.0300	  0.0000	 
  9.5000	   5.9700	  0.0000	 
  9.5000	   6.0000	  0.0000	 
  9.5000	   6.0300	  0.0000	 
 10.0625	   5.1371	  0.0000	 
 10.0625	   6.8629	  0.0000	 
 10.0625	   5.4617	  0.0000	 
 10.0625	   6.5383	  0.0000	 
 10.0625	   5.7862	  0.0000	 
 10.0625	   6.2138	  0.0000	 
 10.6250	   4.6175	  0.0000	 
 10.6250	   7.3825	  0.0000	 
 10.6250	   5.1100	  0.0000	 
 10.6250	   6.8900	  0.0000	 
 10.6250	   5.6025	  0.0000	 
 10.6250	   6.3975	  0.0000	 
 11.1875	   4.0979	  0.0000	 
 11.1875	   7.9021	  0.0000	 
 11.1875	   4.7583	  0.0000	 
 11.1875	   7.2417	  0.0000	 
 11.1875	   5.4188	  0.0000	 
 11.1875	   6.5812	  0.0000	 
 11.7500	   3.5783	  0.0000	 
 11.7500	   8.4217	  0.0000	 
 11.7500	   4.4067	  0.0000	 
 11.7500	   7.5933	  0.0000	 
 11.7500	   5.2350	  0.0000	 
 11.7500	   6.7650	  0.0000	 
 12.3125	   3.0587	  0.0000	 
 12.3125	   8.9413	  0.0000	 
 12.3125	   4.0550	  0.0000	 
 12.3125	   7.9450	  0.0000	 
 12.3125	   5.0512	  0.0000	 
 12.3125	   6.9488	  0.0000	 
 12.8750	   2.5392	  0.0000	 
 12.8750	   9.4608	  0.0000	 
 12.8750	   3.7033	  0.0000	 
 12.8750	   8.2967	  0.0000	 
 12.8750	   4.8675	  0.0000	 
 12.8750	   7.1325	  0.0000	 
 13.4375	   2.0196	  0.0000	 
 13.4375	   9.9804	  0.0000	 
 13.4375	   3.3517	  0.0000	 
 13.4375	   8.6483	  0.0000	 
 13.4375	   4.6837	  0.0000	 
 13.4375	   7.3163	  0.0000	 
 14.0000	   1.5000	  0.0000	 
 14.0000	  10.5000	  0.0000	 
 14.0000	   3.0000	  0.0000	 
 14.0000	   9.0000	  0.0000	 
 14.0000	   4.5000	  0.0000	 
 14.0000	   7.5000	  0.0000	 
 10.0625	   6.0000	  0.0000	 
 10.6250	   6.0000	  0.0000	 
 11.1875	   6.0000	  0.0000	 
 11.7500	   6.0000	  0.0000	 
 12.3125	   6.0000	  0.0000	 
 12.8750	   6.0000	  0.0000	 
 13.4375	   6.0000	  0.0000	 
 14.0000	   6.0000	  0.0000	 
 15.8333	   0.0000	  0.0000	 
 15.8333	   1.5000	  0.0000	 
 15.8333	   3.0000	  0.0000	 
 15.8333	   4.5000	  0.0000	 
 15.8333	   6.0000	  0.0000	 
 15.8333	   7.5000	  0.0000	 
 15.8333	   9.0000	  0.0000	 
 15.8333	  10.5000	  0.0000	 
 15.8333	  12.0000	  0.0000	 
 17.6667	   0.0000	  0.0000	 
 17.6667	   1.5000	  0.0000	 
 17.6667	   3.0000	  0.0000	 
 17.6667	   4.5000	  0.0000	 
 17.6667	   6.0000	  0.0000	 
 17.6667	   7.5000	  0.0000	 
 17.6667	   9.0000	  0.0000	 
 17.6667	  10.5000	  0.0000	 
 17.6667	  12.0000	  0.0000	 
 19.5000	   0.0000	  0.0000	 
 19.5000	   1.5000	  0.0000	 
 19.5000	   3.0000	  0.0000	 
 19.5000	   4.5000	  0.0000	 
 19.5000	   6.0000	  0.0000	 
 19.5000	   7.5000	  0.0000	 
 19.5000	   9.0000	  0.0000	 
 19.5000	  10.5000	  0.0000	 
 19.5000	  12.0000	  0.0000	 

CELLS 	     528 	    2112 
       3	       30	      37	       31	
       3	      275	     271	      262	
       3	       34	      41	       74	
       3	        6	      13	       68	
       3	      194	     192	      186	
       3	      182	     188	      180	
       3	        5	      13	        6	
       3	       23	      22	       29	
       3	       91	      93	       75	
       3	       20	      13	        5	
       3	       67	      65	       81	
       3	       70	      84	       68	
       3	        0	      63	       65	
       3	       26	      25	       33	
       3	       20	       5	       12	
       3	       55	      47	       54	
       3	       20	      70	       13	
       3	       73	      28	       71	
       3	      102	     104	      122	
       3	      127	     129	      109	
       3	      140	     160	      138	
       3	      241	     235	      243	
       3	      277	     261	      263	
[...]
POINT_DATA 	     299 
VECTORS U float 
 50.0000	   0.0000	   0.0000	
 50.0000	   0.0000	   0.0000	
 50.0000	  -0.0000	   0.0000	
 50.0000	   0.0000	   0.0000	
 50.0000	  -0.0000	   0.0000	
 50.0000	   0.0000	   0.0000	
 50.0000	   0.0000	   0.0000	
-125.3456	 -44.0025	   0.0000	
 98.0290	  50.2937	   0.0000	
 40.0058	  72.0994	   0.0000	
 61.7707	  75.5371	   0.0000	
 60.6105	  94.0516	   0.0000	
 64.3976	  85.1082	   0.0000	
 59.3305	  87.2918	   0.0000	
 47.8812	 -23.3851	   0.0000	
 52.3019	  30.8771	   0.0000	
 42.6448	  49.7963	   0.0000	
 54.7806	  62.5768	   0.0000	
 52.6459	  71.3403	   0.0000	
 63.9657	  82.6398	   0.0000	
 56.6506	 113.8524	   0.0000	
  1.3291	  36.2416	   0.0000	
 50.4674	  58.1894	   0.0000	
 37.6024	  62.2993	   0.0000	
 49.5909	  69.4477	   0.0000	
 49.3198	  76.8255	   0.0000	
 55.6516	  82.9986	   0.0000	
 46.8482	  88.2042	   0.0000	
 22.4289	  38.8912	   0.0000	
 45.0691	  57.5433	   0.0000	
 34.1335	  62.3591	   0.0000	
 43.3309	  71.6295	   0.0000	
 45.8583	  78.2627	   0.0000	
 51.6075	  79.5775	   0.0000	
 45.7706	  86.2262	   0.0000	
 26.2735	  49.2395	   0.0000	
 34.6920	  62.7561	   0.0000	
 29.4487	  65.2958	   0.0000	
 38.5556	  72.6379	   0.0000	
 41.8759	  79.7411	   0.0000	
 53.0906	  86.2042	   0.0000	
 47.3594	  79.8290	   0.0000	
 22.2713	  54.7281	   0.0000	
 34.1894	  64.6794	   0.0000	
 26.2224	  68.8367	   0.0000	
 25.4843	  82.2248	   0.0000	
 27.1490	  89.4573	   0.0000	
 33.0097	 101.1828	   0.0000	
 60.5175	  79.1939	   0.0000	
  0.7706	  64.3806	   0.0000	
 12.7684	  77.4218	   0.0000	
 -2.5105	  92.0193	   0.0000	
  4.9863	  95.8129	   0.0000	
 30.0990	 115.6450	   0.0000	
 30.9143	 111.2945	   0.0000	
 66.9080	 108.8229	   0.0000	
 -0.0000	   0.0000	   0.0000	
 -0.0000	   0.0000	   0.0000	
  0.0000	   0.0000	   0.0000	
  0.0000	   0.0000	   0.0000	
  0.0000	  -0.0000	   0.0000	
 -0.0000	   0.0000	   0.0000	
  0.0000	  -0.0000	   0.0000	
 50.0000	  50.0000	   0.0000	
 50.0000	   0.0000	   0.0000	
-71.8491	 141.6686	   0.0000	
 75.3286	  55.7003	   0.0000	
-27.3936	  77.1424	   0.0000	
 76.3843	 102.9096	   0.0000	
 50.7040	  74.8371	   0.0000	
 69.7560	  97.4327	   0.0000	
 36.9698	  66.4816	   0.0000	
 55.8636	  83.7893	   0.0000	
 36.6454	  57.8242	   0.0000	
 52.4744	  81.4700	   0.0000	
 32.3347	  56.7470	   0.0000	
 48.4084	  80.6609	   0.0000	
  5.9028	  49.0610	   0.0000	
100.8871	  80.4675	   0.0000	
 -0.0000	  -0.0000	   0.0000	
 -0.0000	  -0.0000	   0.0000	
112.0240	  50.0000	   0.0000	
 98.4036	 188.2904	   0.0000	
 42.1010	  37.8743	   0.0000	
 15.9864	 134.5100	   0.0000	
 18.5956	  43.9970	   0.0000	
 16.2835	 110.1506	   0.0000	
 28.8044	  40.7829	   0.0000	
 24.5730	  98.4225	   0.0000	
 30.4227	  43.2085	   0.0000	
 30.6161	  85.4821	   0.0000	
 33.0837	  40.9616	   0.0000	
 27.4655	  69.4574	   0.0000	
 29.5523	  37.7546	   0.0000	
 42.2029	  57.9130	   0.0000	
 58.8276	  18.6165	   0.0000	
 46.0567	  27.1397	   0.0000	
 -0.0000	   0.0000	   0.0000	
  0.0000	  -0.0000	   0.0000	
  2.9707	  50.0000	   0.0000	
-42.6255	  56.4768	   0.0000	
 40.9131	  66.5822	   0.0000	
 10.2701	  69.1764	   0.0000	
 30.9376	  64.1652	   0.0000	
  4.5858	  66.3546	   0.0000	
 34.5223	  63.3626	   0.0000	
 10.2537	  64.2297	   0.0000	
 37.9625	  61.5589	   0.0000	
 14.7032	  62.2384	   0.0000	
 41.8832	  62.6619	   0.0000	
 15.1913	  61.6786	   0.0000	
 50.5777	  63.8033	   0.0000	
  6.3796	  55.2293	   0.0000	
 75.8901	  87.5232	   0.0000	
 -3.4173	  58.5056	   0.0000	
 32.1365	 103.2277	   0.0000	
 -0.0179	  78.2168	   0.0000	
 41.6768	  50.0000	   0.0000	
  3.2018	  61.3488	   0.0000	
 38.0208	  55.5581	   0.0000	
  6.4316	  59.2625	   0.0000	
 37.3993	  56.6359	   0.0000	
  6.8692	  59.7052	   0.0000	
 36.9914	  55.7342	   0.0000	
 11.3167	  60.9074	   0.0000	
 35.9640	  56.2015	   0.0000	
 12.5774	  60.5402	   0.0000	
 35.1982	  57.4533	   0.0000	
 15.7056	  59.8093	   0.0000	
 34.0320	  59.4552	   0.0000	
 16.0254	  60.7126	   0.0000	
 31.6430	  63.8096	   0.0000	
 16.3400	  65.1097	   0.0000	
  9.7397	  72.9189	   0.0000	
 30.9027	  69.7280	   0.0000	
 41.5699	  50.0000	   0.0000	
 -0.7160	  45.9226	   0.0000	
 39.2529	  59.2471	   0.0000	
  3.3301	  46.6260	   0.0000	
 36.9050	  58.3561	   0.0000	
  4.1534	  49.5998	   0.0000	
 36.1498	  58.4369	   0.0000	
  8.9506	  50.2628	   0.0000	
 34.8857	  58.2447	   0.0000	
 10.9351	  52.1688	   0.0000	
 33.7939	  58.4876	   0.0000	
 13.9391	  53.6653	   0.0000	
 33.3095	  59.2663	   0.0000	
 15.7840	  55.5278	   0.0000	
 32.0815	  60.8144	   0.0000	
 18.0891	  58.0402	   0.0000	
 26.1387	  60.7847	   0.0000	
 22.0566	  60.8736	   0.0000	
 58.7960	  50.0000	   0.0000	
 -0.0141	  31.5354	   0.0000	
 49.8690	  54.7933	   0.0000	
  3.3043	  34.4303	   0.0000	
 44.5831	  52.7890	   0.0000	
  6.5891	  38.1125	   0.0000	
 42.5692	  52.1517	   0.0000	
  9.9639	  40.6784	   0.0000	
 40.1143	  52.5201	   0.0000	
 13.5168	  44.2241	   0.0000	
 36.8928	  52.2179	   0.0000	
 16.0193	  46.9776	   0.0000	
 33.8801	  52.8363	   0.0000	
 19.0302	  50.1809	   0.0000	
 30.1376	  54.5821	   0.0000	
 21.1773	  53.0942	   0.0000	
 25.2034	  57.5624	   0.0000	
 25.1531	  56.2669	   0.0000	
  0.0000	   0.0000	   0.0000	
  0.0000	   0.0000	   0.0000	
  0.0000	  -0.0000	   0.0000	
 -0.0000	  -0.0000	   0.0000	
  0.0000	  -0.0000	   0.0000	
 -0.0000	  -0.0000	   0.0000	
  0.0000	   0.0000	   0.0000	
  0.0000	   0.0000	   0.0000	
 33.5642	  97.7064	   0.0000	
-12.5669	  86.8531	   0.0000	
 14.3486	  94.4695	   0.0000	
 -0.5024	  87.1770	   0.0000	
  0.0000	   0.0000	   0.0000	
  0.0000	   0.0000	   0.0000	
 26.3166	  70.7744	   0.0000	
 35.9476	  66.4921	   0.0000	
 25.9628	  73.4287	   0.0000	
 32.7610	  69.2114	   0.0000	
  0.0000	   0.0000	   0.0000	
  0.0000	   0.0000	   0.0000	
 30.3296	  57.4233	   0.0000	
 15.8596	  59.9059	   0.0000	
 25.6409	  57.1329	   0.0000	
 18.1151	  59.3849	   0.0000	
  0.0000	   0.0000	   0.0000	
  0.0000	   0.0000	   0.0000	
 25.8112	  58.0355	   0.0000	
 25.3119	  55.6678	   0.0000	
 26.6602	  58.5572	   0.0000	
 28.3628	  56.8656	   0.0000	
  0.0000	   0.0000	   0.0000	
  0.0000	  -0.0000	   0.0000	
  0.0000	  -0.0000	   0.0000	
 12.5220	  89.7968	   0.0000	
 12.1157	  89.8540	   0.0000	
  1.9394	  90.9790	   0.0000	
 24.9064	  73.7634	   0.0000	
 27.9690	  72.6263	   0.0000	
 33.0329	  70.3458	   0.0000	
 24.6670	  56.5658	   0.0000	
 23.0174	  57.7250	   0.0000	
 18.7603	  59.5926	   0.0000	
 25.6980	  58.4582	   0.0000	
 27.6950	  57.6738	   0.0000	
 28.0697	  56.9771	   0.0000	
 29.3312	  54.7655	   0.0000	
 22.1979	  53.7100	   0.0000	
 28.2640	  53.9109	   0.0000	
 23.1941	  53.5233	   0.0000	
 26.7470	  53.5060	   0.0000	
 23.8630	  53.7272	   0.0000	
 31.3651	  53.3407	   0.0000	
 20.3275	  50.4735	   0.0000	
 29.8013	  52.9004	   0.0000	
 22.6298	  50.9898	   0.0000	
 27.7648	  52.3497	   0.0000	
 24.8177	  51.3697	   0.0000	
 33.4989	  52.2170	   0.0000	
 18.6953	  47.5867	   0.0000	
 31.8535	  51.0483	   0.0000	
 21.5829	  48.2589	   0.0000	
 29.1945	  50.1414	   0.0000	
 24.4415	  48.7824	   0.0000	
 35.9155	  51.2122	   0.0000	
 16.7512	  44.6297	   0.0000	
 34.0771	  49.6312	   0.0000	
 20.5475	  45.3975	   0.0000	
 30.6418	  48.2416	   0.0000	
 24.2756	  46.1447	   0.0000	
 38.4279	  50.2226	   0.0000	
 15.0068	  41.2164	   0.0000	
 36.3441	  48.1727	   0.0000	
 19.4054	  42.4359	   0.0000	
 32.2485	  46.2664	   0.0000	
 24.1921	  43.3482	   0.0000	
 41.8474	  50.7600	   0.0000	
 12.9363	  38.6391	   0.0000	
 38.8151	  47.3952	   0.0000	
 18.3187	  39.2332	   0.0000	
 34.0668	  44.4957	   0.0000	
 24.1396	  40.4366	   0.0000	
 43.0668	  51.3299	   0.0000	
 10.3783	  35.2714	   0.0000	
 41.8272	  45.7583	   0.0000	
 17.0279	  36.2727	   0.0000	
 35.8671	  42.4060	   0.0000	
 23.9948	  37.5840	   0.0000	
 46.8697	  53.3493	   0.0000	
  8.0540	  31.7431	   0.0000	
 44.3903	  46.0953	   0.0000	
 15.6505	  32.6603	   0.0000	
 38.4068	  40.7639	   0.0000	
 23.6081	  34.0292	   0.0000	
 25.3160	  53.1479	   0.0000	
 26.5145	  52.0086	   0.0000	
 27.0022	  49.5194	   0.0000	
 27.7070	  47.2966	   0.0000	
 28.5185	  44.9128	   0.0000	
 29.4387	  42.5460	   0.0000	
 30.4869	  40.0672	   0.0000	
 31.3591	  36.3053	   0.0000	
 67.4495	  50.0000	   0.0000	
 60.1169	  45.2124	   0.0000	
 51.9155	  38.3520	   0.0000	
 45.4397	  31.2082	   0.0000	
 35.1832	  27.4163	   0.0000	
 26.0678	  24.7902	   0.0000	
 17.1160	  23.2405	   0.0000	
  8.3666	  22.4813	   0.0000	
  0.1004	  22.1172	   0.0000	
 88.7727	  50.0000	   0.0000	
 76.2196	  37.7475	   0.0000	
 62.7936	  20.1080	   0.0000	
 49.3158	  15.3859	   0.0000	
 38.1076	  13.0681	   0.0000	
 27.8545	  11.9381	   0.0000	
 18.2131	  11.3922	   0.0000	
  8.9276	  10.9927	   0.0000	
  0.0680	  11.1205	   0.0000	
126.1258	  50.0000	   0.0000	
113.7641	  20.1344	   0.0000	
 72.9051	   7.2602	   0.0000	
 53.5661	   2.6639	   0.0000	
 39.5701	   1.0204	   0.0000	
 28.4404	   0.4114	   0.0000	
 18.4954	   0.1285	   0.0000	
  9.0543	   0.0662	   0.0000	
 -0.0477	  -0.0752	   0.0000	
