# vtk DataFile Version 3.0 
Results 
ASCII 
DATASET UNSTRUCTURED_GRID 
POINTS 	    1085 float 
  0.0000	   0.6667	  0.0000	 
  0.0000	   1.3333	  0.0000	 
  0.0000	   2.0000	  0.0000	 
  0.0000	   2.6667	  0.0000	 
  0.0000	   3.3333	  0.0000	 
  0.0000	   4.0000	  0.0000	 
  0.0000	   4.6667	  0.0000	 
  0.0000	   5.3333	  0.0000	 
  0.0000	   6.0000	  0.0000	 
  0.0000	   6.6667	  0.0000	 
  0.0000	   7.3333	  0.0000	 
  0.0000	   8.0000	  0.0000	 
  0.0000	   8.6667	  0.0000	 
  0.0000	   9.3333	  0.0000	 
  0.0000	  10.0000	  0.0000	 
  0.0000	  10.6667	  0.0000	 
  0.0000	  11.3333	  0.0000	 
  0.2500	   0.9383	  0.0000	 
  0.2500	   1.5710	  0.0000	 
  0.2500	   2.2037	  0.0000	 
  0.2500	   2.8364	  0.0000	 
  0.2500	   3.4691	  0.0000	 
  0.2500	   4.1019	  0.0000	 
  0.2500	   4.7346	  0.0000	 
  0.2500	   5.3673	  0.0000	 
  0.2500	   6.0000	  0.0000	 
  0.2500	   6.6327	  0.0000	 
  0.2500	   7.2654	  0.0000	 
  0.2500	   7.8981	  0.0000	 
  0.2500	   8.5309	  0.0000	 
  0.2500	   9.1636	  0.0000	 
  0.2500	   9.7963	  0.0000	 
  0.2500	  10.4290	  0.0000	 
  0.2500	  11.0617	  0.0000	 
  0.5000	   1.2099	  0.0000	 
  0.5000	   1.8086	  0.0000	 
  0.5000	   2.4074	  0.0000	 
  0.5000	   3.0062	  0.0000	 
  0.5000	   3.6049	  0.0000	 
  0.5000	   4.2037	  0.0000	 
  0.5000	   4.8025	  0.0000	 
  0.5000	   5.4012	  0.0000	 
  0.5000	   6.0000	  0.0000	 
  0.5000	   6.5988	  0.0000	 
  0.5000	   7.1975	  0.0000	 
  0.5000	   7.7963	  0.0000	 
  0.5000	   8.3951	  0.0000	 
  0.5000	   8.9938	  0.0000	 
  0.5000	   9.5926	  0.0000	 
  0.5000	  10.1914	  0.0000	 
  0.5000	  10.7901	  0.0000	 
  0.7500	   1.4815	  0.0000	 
  0.7500	   2.0463	  0.0000	 
  0.7500	   2.6111	  0.0000	 
  0.7500	   3.1759	  0.0000	 
  0.7500	   3.7407	  0.0000	 
  0.7500	   4.3056	  0.0000	 
  0.7500	   4.8704	  0.0000	 
  0.7500	   5.4352	  0.0000	 
  0.7500	   6.0000	  0.0000	 
  0.7500	   6.5648	  0.0000	 
  0.7500	   7.1296	  0.0000	 
  0.7500	   7.6944	  0.0000	 
  0.7500	   8.2593	  0.0000	 
  0.7500	   8.8241	  0.0000	 
  0.7500	   9.3889	  0.0000	 
  0.7500	   9.9537	  0.0000	 
  0.7500	  10.5185	  0.0000	 
  1.0000	   1.7531	  0.0000	 
  1.0000	   2.2840	  0.0000	 
  1.0000	   2.8148	  0.0000	 
  1.0000	   3.3457	  0.0000	 
  1.0000	   3.8765	  0.0000	 
  1.0000	   4.4074	  0.0000	 
  1.0000	   4.9383	  0.0000	 
  1.0000	   5.4691	  0.0000	 
  1.0000	   6.0000	  0.0000	 
  1.0000	   6.5309	  0.0000	 
  1.0000	   7.0617	  0.0000	 
  1.0000	   7.5926	  0.0000	 
  1.0000	   8.1235	  0.0000	 
  1.0000	   8.6543	  0.0000	 
  1.0000	   9.1852	  0.0000	 
  1.0000	   9.7160	  0.0000	 
  1.0000	  10.2469	  0.0000	 
  1.2500	   2.0247	  0.0000	 
  1.2500	   2.5216	  0.0000	 
  1.2500	   3.0185	  0.0000	 
  1.2500	   3.5154	  0.0000	 
  1.2500	   4.0123	  0.0000	 
  1.2500	   4.5093	  0.0000	 
  1.2500	   5.0062	  0.0000	 
  1.2500	   5.5031	  0.0000	 
  1.2500	   6.0000	  0.0000	 
  1.2500	   6.4969	  0.0000	 
  1.2500	   6.9938	  0.0000	 
  1.2500	   7.4907	  0.0000	 
  1.2500	   7.9877	  0.0000	 
  1.2500	   8.4846	  0.0000	 
  1.2500	   8.9815	  0.0000	 
  1.2500	   9.4784	  0.0000	 
  1.2500	   9.9753	  0.0000	 
  1.5000	   2.2963	  0.0000	 
  1.5000	   2.7593	  0.0000	 
  1.5000	   3.2222	  0.0000	 
  1.5000	   3.6852	  0.0000	 
  1.5000	   4.1481	  0.0000	 
  1.5000	   4.6111	  0.0000	 
  1.5000	   5.0741	  0.0000	 
  1.5000	   5.5370	  0.0000	 
  1.5000	   6.0000	  0.0000	 
  1.5000	   6.4630	  0.0000	 
  1.5000	   6.9259	  0.0000	 
  1.5000	   7.3889	  0.0000	 
  1.5000	   7.8519	  0.0000	 
  1.5000	   8.3148	  0.0000	 
  1.5000	   8.7778	  0.0000	 
  1.5000	   9.2407	  0.0000	 
  1.5000	   9.7037	  0.0000	 
  1.7500	   2.5679	  0.0000	 
  1.7500	   2.9969	  0.0000	 
  1.7500	   3.4259	  0.0000	 
  1.7500	   3.8549	  0.0000	 
  1.7500	   4.2840	  0.0000	 
  1.7500	   4.7130	  0.0000	 
  1.7500	   5.1420	  0.0000	 
  1.7500	   5.5710	  0.0000	 
  1.7500	   6.0000	  0.0000	 
  1.7500	   6.4290	  0.0000	 
  1.7500	   6.8580	  0.0000	 
  1.7500	   7.2870	  0.0000	 
  1.7500	   7.7160	  0.0000	 
  1.7500	   8.1451	  0.0000	 
  1.7500	   8.5741	  0.0000	 
  1.7500	   9.0031	  0.0000	 
  1.7500	   9.4321	  0.0000	 
  2.0000	   2.8395	  0.0000	 
  2.0000	   3.2346	  0.0000	 
  2.0000	   3.6296	  0.0000	 
  2.0000	   4.0247	  0.0000	 
  2.0000	   4.4198	  0.0000	 
  2.0000	   4.8148	  0.0000	 
  2.0000	   5.2099	  0.0000	 
  2.0000	   5.6049	  0.0000	 
  2.0000	   6.0000	  0.0000	 
  2.0000	   6.3951	  0.0000	 
  2.0000	   6.7901	  0.0000	 
  2.0000	   7.1852	  0.0000	 
  2.0000	   7.5802	  0.0000	 
  2.0000	   7.9753	  0.0000	 
  2.0000	   8.3704	  0.0000	 
  2.0000	   8.7654	  0.0000	 
  2.0000	   9.1605	  0.0000	 
  2.2500	   3.1111	  0.0000	 
  2.2500	   3.4722	  0.0000	 
  2.2500	   3.8333	  0.0000	 
  2.2500	   4.1944	  0.0000	 
  2.2500	   4.5556	  0.0000	 
  2.2500	   4.9167	  0.0000	 
  2.2500	   5.2778	  0.0000	 
  2.2500	   5.6389	  0.0000	 
  2.2500	   6.0000	  0.0000	 
  2.2500	   6.3611	  0.0000	 
  2.2500	   6.7222	  0.0000	 
  2.2500	   7.0833	  0.0000	 
  2.2500	   7.4444	  0.0000	 
  2.2500	   7.8056	  0.0000	 
  2.2500	   8.1667	  0.0000	 
  2.2500	   8.5278	  0.0000	 
  2.2500	   8.8889	  0.0000	 
  2.5000	   3.3827	  0.0000	 
  2.5000	   3.7099	  0.0000	 
  2.5000	   4.0370	  0.0000	 
  2.5000	   4.3642	  0.0000	 
  2.5000	   4.6914	  0.0000	 
  2.5000	   5.0185	  0.0000	 
  2.5000	   5.3457	  0.0000	 
  2.5000	   5.6728	  0.0000	 
  2.5000	   6.0000	  0.0000	 
  2.5000	   6.3272	  0.0000	 
  2.5000	   6.6543	  0.0000	 
  2.5000	   6.9815	  0.0000	 
  2.5000	   7.3086	  0.0000	 
  2.5000	   7.6358	  0.0000	 
  2.5000	   7.9630	  0.0000	 
  2.5000	   8.2901	  0.0000	 
  2.5000	   8.6173	  0.0000	 
  2.7500	   3.6543	  0.0000	 
  2.7500	   3.9475	  0.0000	 
  2.7500	   4.2407	  0.0000	 
  2.7500	   4.5340	  0.0000	 
  2.7500	   4.8272	  0.0000	 
  2.7500	   5.1204	  0.0000	 
  2.7500	   5.4136	  0.0000	 
  2.7500	   5.7068	  0.0000	 
  2.7500	   6.0000	  0.0000	 
  2.7500	   6.2932	  0.0000	 
  2.7500	   6.5864	  0.0000	 
  2.7500	   6.8796	  0.0000	 
  2.7500	   7.1728	  0.0000	 
  2.7500	   7.4660	  0.0000	 
  2.7500	   7.7593	  0.0000	 
  2.7500	   8.0525	  0.0000	 
  2.7500	   8.3457	  0.0000	 
  3.0000	   3.9259	  0.0000	 
  3.0000	   4.1852	  0.0000	 
  3.0000	   4.4444	  0.0000	 
  3.0000	   4.7037	  0.0000	 
  3.0000	   4.9630	  0.0000	 
  3.0000	   5.2222	  0.0000	 
  3.0000	   5.4815	  0.0000	 
  3.0000	   5.7407	  0.0000	 
  3.0000	   6.0000	  0.0000	 
  3.0000	   6.2593	  0.0000	 
  3.0000	   6.5185	  0.0000	 
  3.0000	   6.7778	  0.0000	 
  3.0000	   7.0370	  0.0000	 
  3.0000	   7.2963	  0.0000	 
  3.0000	   7.5556	  0.0000	 
  3.0000	   7.8148	  0.0000	 
  3.0000	   8.0741	  0.0000	 
  3.2500	   4.1975	  0.0000	 
  3.2500	   4.4228	  0.0000	 
  3.2500	   4.6481	  0.0000	 
  3.2500	   4.8735	  0.0000	 
  3.2500	   5.0988	  0.0000	 
  3.2500	   5.3241	  0.0000	 
  3.2500	   5.5494	  0.0000	 
  3.2500	   5.7747	  0.0000	 
  3.2500	   6.0000	  0.0000	 
  3.2500	   6.2253	  0.0000	 
  3.2500	   6.4506	  0.0000	 
  3.2500	   6.6759	  0.0000	 
  3.2500	   6.9012	  0.0000	 
  3.2500	   7.1265	  0.0000	 
  3.2500	   7.3519	  0.0000	 
  3.2500	   7.5772	  0.0000	 
  3.2500	   7.8025	  0.0000	 
  3.5000	   4.4691	  0.0000	 
  3.5000	   4.6605	  0.0000	 
  3.5000	   4.8519	  0.0000	 
  3.5000	   5.0432	  0.0000	 
  3.5000	   5.2346	  0.0000	 
  3.5000	   5.4259	  0.0000	 
  3.5000	   5.6173	  0.0000	 
  3.5000	   5.8086	  0.0000	 
  3.5000	   6.0000	  0.0000	 
  3.5000	   6.1914	  0.0000	 
  3.5000	   6.3827	  0.0000	 
  3.5000	   6.5741	  0.0000	 
  3.5000	   6.7654	  0.0000	 
  3.5000	   6.9568	  0.0000	 
  3.5000	   7.1481	  0.0000	 
  3.5000	   7.3395	  0.0000	 
  3.5000	   7.5309	  0.0000	 
  3.7500	   4.7407	  0.0000	 
  3.7500	   4.8981	  0.0000	 
  3.7500	   5.0556	  0.0000	 
  3.7500	   5.2130	  0.0000	 
  3.7500	   5.3704	  0.0000	 
  3.7500	   5.5278	  0.0000	 
  3.7500	   5.6852	  0.0000	 
  3.7500	   5.8426	  0.0000	 
  3.7500	   6.0000	  0.0000	 
  3.7500	   6.1574	  0.0000	 
  3.7500	   6.3148	  0.0000	 
  3.7500	   6.4722	  0.0000	 
  3.7500	   6.6296	  0.0000	 
  3.7500	   6.7870	  0.0000	 
  3.7500	   6.9444	  0.0000	 
  3.7500	   7.1019	  0.0000	 
  3.7500	   7.2593	  0.0000	 
  4.0000	   5.0123	  0.0000	 
  4.0000	   5.1358	  0.0000	 
  4.0000	   5.2593	  0.0000	 
  4.0000	   5.3827	  0.0000	 
  4.0000	   5.5062	  0.0000	 
  4.0000	   5.6296	  0.0000	 
  4.0000	   5.7531	  0.0000	 
  4.0000	   5.8765	  0.0000	 
  4.0000	   6.0000	  0.0000	 
  4.0000	   6.1235	  0.0000	 
  4.0000	   6.2469	  0.0000	 
  4.0000	   6.3704	  0.0000	 
  4.0000	   6.4938	  0.0000	 
  4.0000	   6.6173	  0.0000	 
  4.0000	   6.7407	  0.0000	 
  4.0000	   6.8642	  0.0000	 
  4.0000	   6.9877	  0.0000	 
  4.2500	   5.2840	  0.0000	 
  4.2500	   5.3735	  0.0000	 
  4.2500	   5.4630	  0.0000	 
  4.2500	   5.5525	  0.0000	 
  4.2500	   5.6420	  0.0000	 
  4.2500	   5.7315	  0.0000	 
  4.2500	   5.8210	  0.0000	 
  4.2500	   5.9105	  0.0000	 
  4.2500	   6.0000	  0.0000	 
  4.2500	   6.0895	  0.0000	 
  4.2500	   6.1790	  0.0000	 
  4.2500	   6.2685	  0.0000	 
  4.2500	   6.3580	  0.0000	 
  4.2500	   6.4475	  0.0000	 
  4.2500	   6.5370	  0.0000	 
  4.2500	   6.6265	  0.0000	 
  4.2500	   6.7160	  0.0000	 
  4.5000	   5.5556	  0.0000	 
  4.5000	   5.6111	  0.0000	 
  4.5000	   5.6667	  0.0000	 
  4.5000	   5.7222	  0.0000	 
  4.5000	   5.7778	  0.0000	 
  4.5000	   5.8333	  0.0000	 
  4.5000	   5.8889	  0.0000	 
  4.5000	   5.9444	  0.0000	 
  4.5000	   6.0000	  0.0000	 
  4.5000	   6.0556	  0.0000	 
  4.5000	   6.1111	  0.0000	 
  4.5000	   6.1667	  0.0000	 
  4.5000	   6.2222	  0.0000	 
  4.5000	   6.2778	  0.0000	 
  4.5000	   6.3333	  0.0000	 
  4.5000	   6.3889	  0.0000	 
  4.5000	   6.4444	  0.0000	 
  0.0000	   0.0000	  0.0000	 
  0.0000	  12.0000	  0.0000	 
  0.2500	   0.3056	  0.0000	 
  0.2500	  11.6944	  0.0000	 
  0.5000	   0.6111	  0.0000	 
  0.5000	  11.3889	  0.0000	 
  0.7500	   0.9167	  0.0000	 
[...]
POINT_DATA 	    1085 
VECTORS U float 
 51.3000	  -0.0000	   0.0000	
 51.3000	   0.0000	   0.0000	
 51.3000	  -0.0000	   0.0000	
 51.3000	   0.0000	   0.0000	
 51.3000	   0.0000	   0.0000	
 51.3000	   0.0000	   0.0000	
 51.3000	   0.0000	   0.0000	
 51.3000	  -0.0000	   0.0000	
 51.3000	   0.0000	   0.0000	
 51.3000	  -0.0000	   0.0000	
 51.3000	   0.0000	   0.0000	
 51.3000	  -0.0000	   0.0000	
 51.3000	  -0.0000	   0.0000	
 51.3000	   0.0000	   0.0000	
 51.3000	  -0.0000	   0.0000	
 51.3000	   0.0000	   0.0000	
 51.3000	  -0.0000	   0.0000	
-11.6814	  -7.9759	   0.0000	
 59.0084	 -12.6012	   0.0000	
 48.3970	  -4.8893	   0.0000	
 52.0240	  -6.9106	   0.0000	
 51.1110	  -4.4651	   0.0000	
 51.8708	  -6.6144	   0.0000	
 51.1876	  -5.3029	   0.0000	
 51.4567	  -5.0512	   0.0000	
 50.8869	  -4.0990	   0.0000	
 51.4145	  -1.9841	   0.0000	
 51.2548	  -1.8068	   0.0000	
 51.2061	  -0.5967	   0.0000	
 51.5070	   0.0951	   0.0000	
 51.6522	   0.4645	   0.0000	
 51.5485	   0.1986	   0.0000	
 51.4747	   0.3053	   0.0000	
 51.4168	  -0.1323	   0.0000	
 16.4205	 -78.1770	   0.0000	
 56.7452	  -6.2957	   0.0000	
 47.8074	 -21.8799	   0.0000	
 51.3042	 -13.5634	   0.0000	
 53.4982	 -15.5584	   0.0000	
 51.2343	 -16.0643	   0.0000	
 50.7347	 -14.1813	   0.0000	
 50.7802	 -12.1426	   0.0000	
 50.0869	  -9.9641	   0.0000	
 50.5106	  -8.3405	   0.0000	
 51.0165	  -6.2115	   0.0000	
 50.3817	  -5.1487	   0.0000	
 50.6628	  -2.4768	   0.0000	
 51.0499	  -1.1534	   0.0000	
 51.2927	  -0.5866	   0.0000	
 51.2176	  -0.3911	   0.0000	
 51.5674	  -0.4288	   0.0000	
-10.4296	 -52.9171	   0.0000	
 68.6200	 -34.0604	   0.0000	
 46.3192	 -23.7589	   0.0000	
 50.9777	 -21.4522	   0.0000	
 53.2865	 -17.5229	   0.0000	
 49.7187	 -15.0931	   0.0000	
 49.9388	 -12.8318	   0.0000	
 49.8470	 -10.9656	   0.0000	
 49.3990	  -9.2501	   0.0000	
 49.8351	  -7.8056	   0.0000	
 50.1128	  -6.3063	   0.0000	
 50.0739	  -4.7263	   0.0000	
 49.4137	  -3.9167	   0.0000	
 50.7500	  -2.9646	   0.0000	
 51.0300	  -2.2371	   0.0000	
 51.2533	  -1.3310	   0.0000	
 51.5899	  -1.5209	   0.0000	
 33.1360	 -70.8637	   0.0000	
 41.7899	 -25.4925	   0.0000	
 47.1193	 -29.4392	   0.0000	
 49.2278	 -22.1266	   0.0000	
 51.3339	 -16.9293	   0.0000	
 48.5200	 -15.2672	   0.0000	
 49.1041	 -12.9001	   0.0000	
 48.9818	 -11.1388	   0.0000	
 48.6671	  -9.4226	   0.0000	
 49.1379	  -7.8770	   0.0000	
 49.4013	  -6.3470	   0.0000	
 49.5634	  -5.0612	   0.0000	
 49.1547	  -4.0386	   0.0000	
 50.1782	  -3.9244	   0.0000	
 50.6764	  -3.3644	   0.0000	
 50.7335	  -2.4509	   0.0000	
 51.5019	  -2.0803	   0.0000	
 24.6741	 -44.7039	   0.0000	
 47.5084	 -33.0574	   0.0000	
 43.3508	 -27.7938	   0.0000	
 47.3858	 -21.1480	   0.0000	
 49.6786	 -16.7727	   0.0000	
 47.2996	 -14.6789	   0.0000	
 48.3182	 -12.7483	   0.0000	
 48.0234	 -10.9206	   0.0000	
 47.9401	  -9.3142	   0.0000	
 48.3682	  -7.8446	   0.0000	
 48.6268	  -6.3404	   0.0000	
 49.0110	  -5.1072	   0.0000	
 48.8124	  -4.0779	   0.0000	
 49.7854	  -3.9236	   0.0000	
 50.4038	  -3.7014	   0.0000	
 50.2274	  -3.0173	   0.0000	
 50.9610	  -2.6965	   0.0000	
 34.5619	 -28.3546	   0.0000	
 43.8012	 -21.9498	   0.0000	
 42.3689	 -20.8859	   0.0000	
 46.6848	 -19.0898	   0.0000	
 47.8878	 -15.5895	   0.0000	
 46.5025	 -14.4776	   0.0000	
 47.4044	 -12.5680	   0.0000	
 47.0839	 -10.8934	   0.0000	
 47.1428	  -9.2899	   0.0000	
 47.5761	  -7.7673	   0.0000	
 47.8386	  -6.3427	   0.0000	
 48.3952	  -5.1492	   0.0000	
 48.3739	  -4.1237	   0.0000	
 49.2587	  -3.7076	   0.0000	
 49.9158	  -3.0425	   0.0000	
 49.8598	  -2.0600	   0.0000	
 50.4664	  -2.0524	   0.0000	
 39.9166	 -21.8324	   0.0000	
 41.6792	 -19.7626	   0.0000	
 44.0294	 -19.4456	   0.0000	
 45.4104	 -17.0857	   0.0000	
 46.8418	 -14.8424	   0.0000	
 45.6810	 -13.7929	   0.0000	
 46.5142	 -12.1889	   0.0000	
 46.1546	 -10.7105	   0.0000	
 46.3209	  -9.1802	   0.0000	
 46.6920	  -7.6933	   0.0000	
 47.0398	  -6.2670	   0.0000	
 47.6896	  -5.1426	   0.0000	
 47.8865	  -4.1241	   0.0000	
 48.6868	  -3.7020	   0.0000	
 49.2558	  -3.1338	   0.0000	
 49.4105	  -2.1777	   0.0000	
 50.1177	  -2.3161	   0.0000	
 41.3221	 -16.0961	   0.0000	
 42.6959	 -19.9871	   0.0000	
 43.6268	 -17.2336	   0.0000	
 44.9233	 -16.4182	   0.0000	
 45.7772	 -14.4907	   0.0000	
 44.9534	 -13.5914	   0.0000	
 45.6265	 -12.0197	   0.0000	
 45.1650	 -10.5958	   0.0000	
 45.4247	  -9.0240	   0.0000	
 45.7497	  -7.5382	   0.0000	
 46.1862	  -6.1426	   0.0000	
 46.9075	  -5.0387	   0.0000	
 47.2956	  -4.0930	   0.0000	
 48.1021	  -3.5926	   0.0000	
 48.6688	  -3.0551	   0.0000	
 48.7973	  -2.3058	   0.0000	
 49.8660	  -2.4601	   0.0000	
 46.9446	 -12.9286	   0.0000	
 41.0297	 -17.8904	   0.0000	
 44.1683	 -15.4912	   0.0000	
 44.3160	 -15.0903	   0.0000	
 45.0262	 -13.9347	   0.0000	
 44.1658	 -13.2640	   0.0000	
 44.7153	 -11.8082	   0.0000	
 44.1012	 -10.5227	   0.0000	
 44.4378	  -8.9168	   0.0000	
 44.7151	  -7.3839	   0.0000	
 45.2415	  -5.9686	   0.0000	
 46.0551	  -4.8367	   0.0000	
 46.6233	  -3.9739	   0.0000	
 47.4383	  -3.4603	   0.0000	
 48.0280	  -2.8965	   0.0000	
 48.2992	  -2.2473	   0.0000	
 49.2784	  -2.5575	   0.0000	
 46.3524	 -12.4795	   0.0000	
 41.1744	 -17.7525	   0.0000	
 44.0058	 -15.0620	   0.0000	
 43.9483	 -14.6158	   0.0000	
 44.3245	 -13.5239	   0.0000	
 43.2822	 -12.9943	   0.0000	
 43.8470	 -11.5682	   0.0000	
 42.9304	 -10.3588	   0.0000	
 43.3079	  -8.7163	   0.0000	
 43.5362	  -7.1176	   0.0000	
 44.1901	  -5.6926	   0.0000	
 45.0588	  -4.5706	   0.0000	
 45.8989	  -3.7360	   0.0000	
 46.6969	  -3.2425	   0.0000	
 47.2959	  -2.6525	   0.0000	
 47.7582	  -2.2284	   0.0000	
 48.8397	  -2.6041	   0.0000	
 46.0669	 -11.6569	   0.0000	
 41.8332	 -15.6944	   0.0000	
 43.8702	 -15.1689	   0.0000	
 43.3069	 -14.6717	   0.0000	
 43.6869	 -13.6450	   0.0000	
 42.2524	 -13.4565	   0.0000	
 42.8674	 -11.7364	   0.0000	
 41.5106	 -10.5339	   0.0000	
 41.9091	  -8.6656	   0.0000	
 42.1391	  -6.8886	   0.0000	
 42.9797	  -5.2939	   0.0000	
 43.9451	  -4.1004	   0.0000	
 44.9839	  -3.3585	   0.0000	
 45.8984	  -2.7210	   0.0000	
 46.4969	  -2.2463	   0.0000	
 47.2741	  -2.2204	   0.0000	
 48.2172	  -2.4693	   0.0000	
 43.8205	 -12.5215	   0.0000	
 44.3092	 -12.2965	   0.0000	
 43.3647	 -14.1750	   0.0000	
 42.6358	 -14.1201	   0.0000	
 43.4142	 -13.3746	   0.0000	
 40.6471	 -13.5811	   0.0000	
 41.6823	 -11.1649	   0.0000	
 39.8947	 -10.3186	   0.0000	
 40.2385	  -8.3940	   0.0000	
 40.5344	  -6.5162	   0.0000	
 41.3650	  -4.9982	   0.0000	
 42.5160	  -3.4360	   0.0000	
 43.9728	  -2.6232	   0.0000	
 44.8155	  -1.9688	   0.0000	
 45.9161	  -1.8577	   0.0000	
 46.9081	  -2.6035	   0.0000	
 47.3264	  -2.1312	   0.0000	
 41.7212	 -15.8483	   0.0000	
 46.0224	 -12.9275	   0.0000	
 43.0788	 -14.9230	   0.0000	
 42.3613	 -16.0214	   0.0000	
 42.9765	 -14.3519	   0.0000	
 37.9058	 -15.3836	   0.0000	
 40.7241	 -12.4628	   0.0000	
 37.9565	 -11.3631	   0.0000	
 37.3473	  -8.6015	   0.0000	
 38.4021	  -5.8690	   0.0000	
 39.6600	  -3.8327	   0.0000	
 40.3477	  -2.3445	   0.0000	
 42.5341	  -1.4231	   0.0000	
 43.7710	  -0.6817	   0.0000	
 45.4074	  -1.5020	   0.0000	
 47.0445	  -2.4440	   0.0000	
 44.8979	  -0.4392	   0.0000	
 46.2189	 -13.3591	   0.0000	
 44.6833	 -13.7744	   0.0000	
 44.2892	 -15.2275	   0.0000	
 39.4644	 -16.3811	   0.0000	
 42.6918	 -12.3992	   0.0000	
 34.9726	 -16.9584	   0.0000	
 38.3591	 -11.9148	   0.0000	
 34.3468	  -9.1618	   0.0000	
 35.3670	  -8.0194	   0.0000	
 35.0388	  -6.0887	   0.0000	
 36.5338	  -3.5520	   0.0000	
 38.2458	  -1.0162	   0.0000	
 40.4469	  -0.9282	   0.0000	
 41.7303	   0.3494	   0.0000	
 45.1650	  -0.4458	   0.0000	
 46.4545	  -0.9478	   0.0000	
 46.6997	  -1.2228	   0.0000	
 45.5396	 -18.8895	   0.0000	
 44.6464	 -17.8324	   0.0000	
 43.9188	 -21.2253	   0.0000	
 33.1952	 -25.3637	   0.0000	
 46.8309	 -17.7769	   0.0000	
 27.6036	 -22.9977	   0.0000	
 32.0788	 -15.2832	   0.0000	
 33.1991	 -13.7803	   0.0000	
 27.7101	  -8.4933	   0.0000	
 31.8839	  -3.7323	   0.0000	
 32.1416	  -0.5630	   0.0000	
 33.0782	   2.3406	   0.0000	
 39.2670	   2.9386	   0.0000	
 38.0220	   5.0376	   0.0000	
 43.3914	   3.6927	   0.0000	
 44.5289	   2.2253	   0.0000	
 45.0484	   4.3402	   0.0000	
 49.9939	 -17.4878	   0.0000	
 47.9310	 -22.2181	   0.0000	
 18.7874	 -26.3073	   0.0000	
 38.7235	 -20.2753	   0.0000	
 42.4576	 -12.5811	   0.0000	
 16.1394	 -19.1447	   0.0000	
 30.3721	 -18.3422	   0.0000	
 21.8079	  -9.2661	   0.0000	
 22.8451	  -7.6613	   0.0000	
 23.0689	  -4.7579	   0.0000	
 25.3981	   0.9479	   0.0000	
 27.6979	   4.3292	   0.0000	
 33.6903	   3.2484	   0.0000	
 33.5434	   6.9650	   0.0000	
 34.9232	   9.5784	   0.0000	
 44.4534	   6.0630	   0.0000	
 47.3071	   3.9697	   0.0000	
 24.6333	 -56.0198	   0.0000	
 36.2150	 -52.4489	   0.0000	
 17.5548	 -51.3074	   0.0000	
 50.9864	 -45.5240	   0.0000	
-18.8638	 -38.0677	   0.0000	
 35.3494	 -28.3087	   0.0000	
 -5.7785	 -23.6325	   0.0000	
 19.9828	 -17.3334	   0.0000	
  1.0824	 -10.0990	   0.0000	
 15.3483	  -3.1261	   0.0000	
  8.7650	   2.8498	   0.0000	
 16.2066	   8.7921	   0.0000	
 14.5567	  15.0842	   0.0000	
 36.0319	  21.5895	   0.0000	
 24.0556	  25.8571	   0.0000	
 33.9521	  28.0050	   0.0000	
 36.6386	  28.0408	   0.0000	
 -0.0000	   0.0000	   0.0000	
  0.0000	   0.0000	   0.0000	
  0.0000	   0.0000	   0.0000	
 -0.0000	   0.0000	   0.0000	
 -0.0000	  -0.0000	   0.0000	
 -0.0000	   0.0000	   0.0000	
 -0.0000	   0.0000	   0.0000	
 -0.0000	  -0.0000	   0.0000	
  0.0000	   0.0000	   0.0000	
 -0.0000	   0.0000	   0.0000	
 -0.0000	  -0.0000	   0.0000	
 -0.0000	  -0.0000	   0.0000	
 -0.0000	  -0.0000	   0.0000	
  0.0000	   0.0000	   0.0000	
  0.0000	   0.0000	   0.0000	
  0.0000	   0.0000	   0.0000	
  0.0000	  -0.0000	   0.0000	
 51.3000	  -0.0000	   0.0000	
 51.3000	  -0.0000	   0.0000	
 -7.6981	  -7.0638	   0.0000	
 51.7434	   0.1410	   0.0000	
-108.0353	   2.5103	   0.0000	
 51.5675	   0.1672	   0.0000	
 50.3404	 -64.4178	   0.0000	
 51.1513	   0.1138	   0.0000	
 -8.5155	 -27.9924	   0.0000	
 49.9064	  -0.4108	   0.0000	
 34.1791	 -46.8253	   0.0000	
 49.9056	  -0.4516	   0.0000	
 23.2185	 -31.0431	   0.0000	
 49.6849	  -0.6578	   0.0000	
 28.4236	 -30.4010	   0.0000	
 49.4271	  -0.8446	   0.0000	
 31.2118	 -28.3162	   0.0000	
 48.9665	  -1.0564	   0.0000	
 30.0233	 -24.1447	   0.0000	
 48.8179	  -0.9224	   0.0000	
 36.7541	 -24.4630	   0.0000	
 48.0377	  -0.9011	   0.0000	
 36.8149	 -21.5861	   0.0000	
 47.4800	  -0.4657	   0.0000	
 38.3185	 -19.9520	   0.0000	
 46.4006	  -0.0302	   0.0000	
 39.9878	 -19.1800	   0.0000	
 46.1151	   1.3141	   0.0000	
 38.9455	 -17.7234	   0.0000	
 42.2297	   1.4090	   0.0000	
 45.1921	 -21.7162	   0.0000	
 46.2232	   7.4158	   0.0000	
 40.4662	 -20.6415	   0.0000	
 38.5206	   8.6503	   0.0000	
 71.1537	 -32.0542	   0.0000	
 58.4737	  18.9300	   0.0000	
  0.0000	   0.0000	   0.0000	
 -0.0000	   0.0000	   0.0000	
 35.4523	  -0.0000	   0.0000	
 51.7661	  -0.0000	   0.0000	
 14.3621	   5.4812	   0.0000	
 50.2102	  -0.5482	   0.0000	
 24.6117	   3.4813	   0.0000	
 49.4899	  -0.8993	   0.0000	
 30.9473	  -0.1248	   0.0000	
 49.4916	  -1.0128	   0.0000	
 33.5327	  -1.2900	   0.0000	
 49.5055	  -1.0972	   0.0000	
 36.1722	  -1.9845	   0.0000	
 49.5165	  -1.1899	   0.0000	
 40.0592	  -3.9861	   0.0000	
 49.2511	  -1.4052	   0.0000	
 37.1371	  -2.9178	   0.0000	
 49.4980	  -1.4084	   0.0000	
 40.5094	  -4.0281	   0.0000	
 49.9175	  -1.3883	   0.0000	
 41.9006	  -4.1884	   0.0000	
 50.1147	  -1.2528	   0.0000	
 43.6570	  -4.5038	   0.0000	
 50.3820	  -0.9129	   0.0000	
 46.0009	  -4.8864	   0.0000	
 51.9037	  -0.6420	   0.0000	
 47.3001	  -5.0078	   0.0000	
 52.4042	  -0.4592	   0.0000	
 47.9231	  -3.7303	   0.0000	
 50.4709	  -1.7540	   0.0000	
 53.6768	  -4.3247	   0.0000	
 57.8004	   0.5761	   0.0000	
 56.2432	  -3.5957	   0.0000	
 54.3481	  -0.2484	   0.0000	
 66.0433	  -1.4057	   0.0000	
 68.4532	   2.3662	   0.0000	
 41.3844	   1.2900	   0.0000	
 46.5207	   4.0832	   0.0000	
 -0.0000	   0.0000	   0.0000	
 -0.0000	  -0.0000	   0.0000	
 42.7653	  -0.0000	   0.0000	
 47.8098	   0.0000	   0.0000	
 39.9867	  -1.3870	   0.0000	
 47.9130	  -0.1743	   0.0000	
 38.5730	  -2.2001	   0.0000	
 47.7588	  -0.4666	   0.0000	
 39.3397	  -2.8954	   0.0000	
 47.8371	  -0.7516	   0.0000	
 40.0079	  -3.2836	   0.0000	
 47.7448	  -1.0814	   0.0000	
 39.9606	  -3.4407	   0.0000	
 47.7855	  -1.4107	   0.0000	
 40.0195	  -3.4414	   0.0000	
 47.6779	  -1.8650	   0.0000	
 40.8440	  -3.3917	   0.0000	
 47.8303	  -2.2812	   0.0000	
 41.6173	  -3.1930	   0.0000	
 48.2227	  -2.7980	   0.0000	
 41.5873	  -2.7644	   0.0000	
 47.7137	  -3.6092	   0.0000	
 42.6021	  -2.1244	   0.0000	
 48.5123	  -4.4460	   0.0000	
 42.9047	  -1.0152	   0.0000	
 49.3886	  -5.5299	   0.0000	
 42.5057	   0.0713	   0.0000	
 47.1848	  -7.0464	   0.0000	
 42.4971	   2.4445	   0.0000	
 51.0584	  -9.5120	   0.0000	
 41.8267	   5.3505	   0.0000	
 48.7852	 -12.8572	   0.0000	
 54.8823	   9.1414	   0.0000	
 59.8688	 -16.6150	   0.0000	
 52.4190	  11.9435	   0.0000	
 60.6648	 -19.1892	   0.0000	
 30.0533	  11.5009	   0.0000	
 34.1870	 -19.5668	   0.0000	
 22.5307	   6.8485	   0.0000	
 22.4226	 -15.2065	   0.0000	
 40.3719	   0.0000	   0.0000	
 45.0262	   0.0000	   0.0000	
 39.3122	  -0.0025	   0.0000	
 45.2571	  -0.2763	   0.0000	
 39.5562	   0.0335	   0.0000	
 45.3622	  -0.5572	   0.0000	
 39.5421	  -0.0124	   0.0000	
 45.2807	  -0.7816	   0.0000	
 39.9208	   0.0281	   0.0000	
 45.3903	  -1.0795	   0.0000	
 39.9009	  -0.0285	   0.0000	
 45.2400	  -1.3040	   0.0000	
 40.1837	  -0.1451	   0.0000	
 45.3815	  -1.6273	   0.0000	
 40.4194	  -0.2398	   0.0000	
 45.2082	  -1.8723	   0.0000	
 40.1971	  -0.3669	   0.0000	
 44.9444	  -2.0894	   0.0000	
 40.8474	  -0.3950	   0.0000	
 45.3424	  -2.4475	   0.0000	
 40.5548	  -0.5660	   0.0000	
 44.8007	  -2.5818	   0.0000	
 39.9876	  -0.6954	   0.0000	
 43.9024	  -2.8377	   0.0000	
 41.1404	  -0.7424	   0.0000	
 45.2246	  -3.0624	   0.0000	
 40.2685	  -1.0153	   0.0000	
 43.5093	  -2.8838	   0.0000	
 39.0632	  -1.4184	   0.0000	
 42.8229	  -3.3987	   0.0000	
 38.0310	  -2.3972	   0.0000	
 41.2365	  -3.5932	   0.0000	
 39.6345	   0.0044	   0.0000	
 42.8163	  -6.8655	   0.0000	
 38.3884	   0.6526	   0.0000	
 42.8070	 -10.0601	   0.0000	
 36.5359	  -1.3810	   0.0000	
 36.1150	  -7.9780	   0.0000	
 41.2002	  -0.0000	   0.0000	
 43.4941	   0.0000	   0.0000	
 41.3483	   0.0035	   0.0000	
 43.6431	  -0.1726	   0.0000	
 41.3515	  -0.0025	   0.0000	
 43.7186	  -0.3333	   0.0000	
 41.3873	  -0.0473	   0.0000	
 43.6977	  -0.4595	   0.0000	
 41.6590	  -0.0172	   0.0000	
 43.7157	  -0.6342	   0.0000	
 41.5422	  -0.2471	   0.0000	
 43.7502	  -0.8397	   0.0000	
 41.4394	  -0.4146	   0.0000	
 43.7796	  -1.0589	   0.0000	
 41.3242	  -0.5362	   0.0000	
 43.6875	  -1.2516	   0.0000	
 41.3718	  -0.5789	   0.0000	
 43.6643	  -1.4739	   0.0000	
 41.0800	  -0.7138	   0.0000	
 43.6170	  -1.7253	   0.0000	
 41.0293	  -0.7877	   0.0000	
 43.5310	  -1.9803	   0.0000	
 40.9967	  -0.7575	   0.0000	
 43.3810	  -2.3353	   0.0000	
 40.8948	  -0.7815	   0.0000	
 43.3134	  -2.6682	   0.0000	
 41.0402	  -0.7075	   0.0000	
 43.3549	  -3.0151	   0.0000	
 40.6299	  -0.7563	   0.0000	
 42.7654	  -3.3551	   0.0000	
 40.5083	  -0.8501	   0.0000	
 42.4644	  -3.4898	   0.0000	
 40.9602	  -0.9541	   0.0000	
 42.1340	  -3.5367	   0.0000	
 39.2231	  -2.2588	   0.0000	
 40.9039	  -2.8663	   0.0000	
 41.8394	  -1.2623	   0.0000	
 40.2293	  -3.2354	   0.0000	
 41.4953	  -0.0000	   0.0000	
 42.7845	   0.0000	   0.0000	
 41.4736	  -0.0511	   0.0000	
 42.8136	  -0.0654	   0.0000	
 41.4482	  -0.1101	   0.0000	
 42.8601	  -0.1346	   0.0000	
 41.4414	  -0.1753	   0.0000	
 42.8872	  -0.2049	   0.0000	
 41.3786	  -0.2856	   0.0000	
 42.9467	  -0.2977	   0.0000	
 41.3137	  -0.3626	   0.0000	
 42.9411	  -0.3843	   0.0000	
 41.3559	  -0.3807	   0.0000	
 42.9555	  -0.5046	   0.0000	
 41.2794	  -0.4694	   0.0000	
 42.9721	  -0.6167	   0.0000	
 41.1772	  -0.4410	   0.0000	
 42.9724	  -0.7317	   0.0000	
 41.1008	  -0.4850	   0.0000	
 42.9175	  -0.8350	   0.0000	
 41.1925	  -0.4887	   0.0000	
 42.9222	  -1.0033	   0.0000	
 41.1413	  -0.5886	   0.0000	
 42.8776	  -1.1597	   0.0000	
 41.2113	  -0.6578	   0.0000	
 42.8087	  -1.3240	   0.0000	
 41.1440	  -0.8338	   0.0000	
 42.6682	  -1.4709	   0.0000	
 41.1840	  -0.9166	   0.0000	
 42.6293	  -1.6469	   0.0000	
 41.0168	  -1.2139	   0.0000	
 42.0854	  -1.6756	   0.0000	
 41.1003	  -1.3437	   0.0000	
 42.1237	  -2.0765	   0.0000	
 41.1028	  -1.4659	   0.0000	
 41.6516	  -2.2946	   0.0000	
 40.6181	  -1.5696	   0.0000	
 41.2810	  -2.5622	   0.0000	
  0.0000	   0.0000	   0.0000	
  0.0000	   0.0000	   0.0000	
 -0.0000	   0.0000	   0.0000	
 -0.0000	  -0.0000	   0.0000	
 -0.0000	   0.0000	   0.0000	
 -0.0000	   0.0000	   0.0000	
  0.0000	  -0.0000	   0.0000	
  0.0000	  -0.0000	   0.0000	
  0.0000	  -0.0000	   0.0000	
  0.0000	  -0.0000	   0.0000	
  0.0000	  -0.0000	   0.0000	
 -0.0000	  -0.0000	   0.0000	
  0.0000	   0.0000	   0.0000	
  0.0000	  -0.0000	   0.0000	
  0.0000	  -0.0000	   0.0000	
  0.0000	   0.0000	   0.0000	
  0.0000	   0.0000	   0.0000	
  0.0000	   0.0000	   0.0000	
 34.7164	   7.5060	   0.0000	
 34.9897	 -15.6845	   0.0000	
 31.9469	   7.0484	   0.0000	
 37.7978	 -15.4367	   0.0000	
 29.4316	   5.8536	   0.0000	
 34.1534	 -14.2671	   0.0000	
 28.0017	   4.5453	   0.0000	
 31.5400	 -12.5813	   0.0000	
 26.6122	   2.7475	   0.0000	
 28.6175	 -10.7625	   0.0000	
 25.6717	   1.1839	   0.0000	
 27.3958	  -8.9848	   0.0000	
 24.7653	  -0.6733	   0.0000	
 26.0696	  -6.8783	   0.0000	
  0.0000	   0.0000	   0.0000	
  0.0000	   0.0000	   0.0000	
 34.0407	  -2.4234	   0.0000	
 32.4718	  -6.5383	   0.0000	
 34.8864	  -3.2123	   0.0000	
 31.9778	  -5.6686	   0.0000	
 35.2924	  -3.7244	   0.0000	
 32.9594	  -5.3996	   0.0000	
 35.4668	  -4.0559	   0.0000	
 33.7349	  -5.2056	   0.0000	
 35.8618	  -4.3205	   0.0000	
 34.6152	  -5.0488	   0.0000	
 35.8819	  -4.5478	   0.0000	
 35.1072	  -4.9095	   0.0000	
 35.9270	  -4.7691	   0.0000	
 35.4596	  -4.7910	   0.0000	
  0.0000	   0.0000	   0.0000	
  0.0000	   0.0000	   0.0000	
 41.6798	  -1.3722	   0.0000	
 41.2781	  -3.3955	   0.0000	
 42.3170	  -1.4100	   0.0000	
 44.2212	  -3.2409	   0.0000	
 42.1214	  -1.4638	   0.0000	
 44.0448	  -3.1560	   0.0000	
 42.1904	  -1.5775	   0.0000	
 43.7136	  -2.9421	   0.0000	
 42.1792	  -1.6813	   0.0000	
 43.4583	  -2.8369	   0.0000	
 42.2407	  -1.8098	   0.0000	
 43.0927	  -2.6486	   0.0000	
 42.3329	  -1.9457	   0.0000	
 42.7318	  -2.5366	   0.0000	
  0.0000	   0.0000	   0.0000	
  0.0000	   0.0000	   0.0000	
 39.6394	  -2.0379	   0.0000	
 40.2465	  -2.0662	   0.0000	
 39.9946	  -2.1489	   0.0000	
 40.1941	  -1.8983	   0.0000	
 39.9700	  -2.1689	   0.0000	
 39.9204	  -1.9591	   0.0000	
 39.5968	  -2.1864	   0.0000	
 39.3448	  -1.9682	   0.0000	
 40.0274	  -2.1792	   0.0000	
 39.9181	  -2.0672	   0.0000	
 39.5017	  -2.2043	   0.0000	
 39.3426	  -2.1294	   0.0000	
 40.0720	  -2.2541	   0.0000	
 40.0172	  -2.1604	   0.0000	
 -0.0000	  -0.0000	   0.0000	
  0.0000	  -0.0000	   0.0000	
 -0.0000	   0.0000	   0.0000	
 25.2579	  -2.4852	   0.0000	
 25.9666	  -3.8240	   0.0000	
 25.7957	  -5.2459	   0.0000	
 36.2201	  -5.0258	   0.0000	
 35.5666	  -4.7369	   0.0000	
 35.1841	  -4.6003	   0.0000	
 42.0093	  -2.1213	   0.0000	
 42.6956	  -2.2727	   0.0000	
 43.1708	  -2.3932	   0.0000	
 40.0032	  -2.1984	   0.0000	
 39.2121	  -2.1711	   0.0000	
 39.6433	  -2.1909	   0.0000	
 41.1751	  -1.4280	   0.0000	
 41.8648	  -2.2688	   0.0000	
 41.2013	  -1.3971	   0.0000	
 41.9014	  -2.3226	   0.0000	
 41.0500	  -1.3591	   0.0000	
 41.6009	  -2.4266	   0.0000	
 41.5707	  -1.3667	   0.0000	
 42.1818	  -2.4815	   0.0000	
 41.1444	  -1.5159	   0.0000	
 41.4566	  -2.3226	   0.0000	
 41.5280	  -1.6686	   0.0000	
 41.7319	  -2.1045	   0.0000	
 41.6155	  -1.6856	   0.0000	
 41.8017	  -1.8730	   0.0000	
 41.4830	  -1.7920	   0.0000	
 41.4211	  -1.7158	   0.0000	
 41.1795	  -1.3907	   0.0000	
 42.1024	  -2.0302	   0.0000	
 41.1844	  -1.4197	   0.0000	