# vtk DataFile Version 3.0 
Results 
ASCII 
DATASET UNSTRUCTURED_GRID 
POINTS 	    1451 float 
  0.0000	   0.6000	  0.0000	 
  0.0000	   1.2000	  0.0000	 
  0.0000	   1.8000	  0.0000	 
  0.0000	   2.4000	  0.0000	 
  0.0000	   3.0000	  0.0000	 
  0.0000	   3.6000	  0.0000	 
  0.0000	   4.2000	  0.0000	 
  0.0000	   4.8000	  0.0000	 
  0.0000	   5.4000	  0.0000	 
  0.0000	   6.0000	  0.0000	 
  0.0000	   6.6000	  0.0000	 
  0.0000	   7.2000	  0.0000	 
  0.0000	   7.8000	  0.0000	 
  0.0000	   8.4000	  0.0000	 
  0.0000	   9.0000	  0.0000	 
  0.0000	   9.6000	  0.0000	 
  0.0000	  10.2000	  0.0000	 
  0.0000	  10.8000	  0.0000	 
  0.0000	  11.4000	  0.0000	 
  0.2250	   0.8475	  0.0000	 
  0.2250	   1.4200	  0.0000	 
  0.2250	   1.9925	  0.0000	 
  0.2250	   2.5650	  0.0000	 
  0.2250	   3.1375	  0.0000	 
  0.2250	   3.7100	  0.0000	 
  0.2250	   4.2825	  0.0000	 
  0.2250	   4.8550	  0.0000	 
  0.2250	   5.4275	  0.0000	 
  0.2250	   6.0000	  0.0000	 
  0.2250	   6.5725	  0.0000	 
  0.2250	   7.1450	  0.0000	 
  0.2250	   7.7175	  0.0000	 
  0.2250	   8.2900	  0.0000	 
  0.2250	   8.8625	  0.0000	 
  0.2250	   9.4350	  0.0000	 
  0.2250	  10.0075	  0.0000	 
  0.2250	  10.5800	  0.0000	 
  0.2250	  11.1525	  0.0000	 
  0.4500	   1.0950	  0.0000	 
  0.4500	   1.6400	  0.0000	 
  0.4500	   2.1850	  0.0000	 
  0.4500	   2.7300	  0.0000	 
  0.4500	   3.2750	  0.0000	 
  0.4500	   3.8200	  0.0000	 
  0.4500	   4.3650	  0.0000	 
  0.4500	   4.9100	  0.0000	 
  0.4500	   5.4550	  0.0000	 
  0.4500	   6.0000	  0.0000	 
  0.4500	   6.5450	  0.0000	 
  0.4500	   7.0900	  0.0000	 
  0.4500	   7.6350	  0.0000	 
  0.4500	   8.1800	  0.0000	 
  0.4500	   8.7250	  0.0000	 
  0.4500	   9.2700	  0.0000	 
  0.4500	   9.8150	  0.0000	 
  0.4500	  10.3600	  0.0000	 
  0.4500	  10.9050	  0.0000	 
  0.6750	   1.3425	  0.0000	 
  0.6750	   1.8600	  0.0000	 
  0.6750	   2.3775	  0.0000	 
  0.6750	   2.8950	  0.0000	 
  0.6750	   3.4125	  0.0000	 
  0.6750	   3.9300	  0.0000	 
  0.6750	   4.4475	  0.0000	 
  0.6750	   4.9650	  0.0000	 
  0.6750	   5.4825	  0.0000	 
  0.6750	   6.0000	  0.0000	 
  0.6750	   6.5175	  0.0000	 
  0.6750	   7.0350	  0.0000	 
  0.6750	   7.5525	  0.0000	 
  0.6750	   8.0700	  0.0000	 
  0.6750	   8.5875	  0.0000	 
  0.6750	   9.1050	  0.0000	 
  0.6750	   9.6225	  0.0000	 
  0.6750	  10.1400	  0.0000	 
  0.6750	  10.6575	  0.0000	 
  0.9000	   1.5900	  0.0000	 
  0.9000	   2.0800	  0.0000	 
  0.9000	   2.5700	  0.0000	 
  0.9000	   3.0600	  0.0000	 
  0.9000	   3.5500	  0.0000	 
  0.9000	   4.0400	  0.0000	 
  0.9000	   4.5300	  0.0000	 
  0.9000	   5.0200	  0.0000	 
  0.9000	   5.5100	  0.0000	 
  0.9000	   6.0000	  0.0000	 
  0.9000	   6.4900	  0.0000	 
  0.9000	   6.9800	  0.0000	 
  0.9000	   7.4700	  0.0000	 
  0.9000	   7.9600	  0.0000	 
  0.9000	   8.4500	  0.0000	 
  0.9000	   8.9400	  0.0000	 
  0.9000	   9.4300	  0.0000	 
  0.9000	   9.9200	  0.0000	 
  0.9000	  10.4100	  0.0000	 
  1.1250	   1.8375	  0.0000	 
  1.1250	   2.3000	  0.0000	 
  1.1250	   2.7625	  0.0000	 
  1.1250	   3.2250	  0.0000	 
  1.1250	   3.6875	  0.0000	 
  1.1250	   4.1500	  0.0000	 
  1.1250	   4.6125	  0.0000	 
  1.1250	   5.0750	  0.0000	 
  1.1250	   5.5375	  0.0000	 
  1.1250	   6.0000	  0.0000	 
  1.1250	   6.4625	  0.0000	 
  1.1250	   6.9250	  0.0000	 
  1.1250	   7.3875	  0.0000	 
  1.1250	   7.8500	  0.0000	 
  1.1250	   8.3125	  0.0000	 
  1.1250	   8.7750	  0.0000	 
  1.1250	   9.2375	  0.0000	 
  1.1250	   9.7000	  0.0000	 
  1.1250	  10.1625	  0.0000	 
  1.3500	   2.0850	  0.0000	 
  1.3500	   2.5200	  0.0000	 
  1.3500	   2.9550	  0.0000	 
  1.3500	   3.3900	  0.0000	 
  1.3500	   3.8250	  0.0000	 
  1.3500	   4.2600	  0.0000	 
  1.3500	   4.6950	  0.0000	 
  1.3500	   5.1300	  0.0000	 
  1.3500	   5.5650	  0.0000	 
  1.3500	   6.0000	  0.0000	 
  1.3500	   6.4350	  0.0000	 
  1.3500	   6.8700	  0.0000	 
  1.3500	   7.3050	  0.0000	 
  1.3500	   7.7400	  0.0000	 
  1.3500	   8.1750	  0.0000	 
  1.3500	   8.6100	  0.0000	 
  1.3500	   9.0450	  0.0000	 
  1.3500	   9.4800	  0.0000	 
  1.3500	   9.9150	  0.0000	 
  1.5750	   2.3325	  0.0000	 
  1.5750	   2.7400	  0.0000	 
  1.5750	   3.1475	  0.0000	 
  1.5750	   3.5550	  0.0000	 
  1.5750	   3.9625	  0.0000	 
  1.5750	   4.3700	  0.0000	 
  1.5750	   4.7775	  0.0000	 
  1.5750	   5.1850	  0.0000	 
  1.5750	   5.5925	  0.0000	 
  1.5750	   6.0000	  0.0000	 
  1.5750	   6.4075	  0.0000	 
  1.5750	   6.8150	  0.0000	 
  1.5750	   7.2225	  0.0000	 
  1.5750	   7.6300	  0.0000	 
  1.5750	   8.0375	  0.0000	 
  1.5750	   8.4450	  0.0000	 
  1.5750	   8.8525	  0.0000	 
  1.5750	   9.2600	  0.0000	 
  1.5750	   9.6675	  0.0000	 
  1.8000	   2.5800	  0.0000	 
  1.8000	   2.9600	  0.0000	 
  1.8000	   3.3400	  0.0000	 
  1.8000	   3.7200	  0.0000	 
  1.8000	   4.1000	  0.0000	 
  1.8000	   4.4800	  0.0000	 
  1.8000	   4.8600	  0.0000	 
  1.8000	   5.2400	  0.0000	 
  1.8000	   5.6200	  0.0000	 
  1.8000	   6.0000	  0.0000	 
  1.8000	   6.3800	  0.0000	 
  1.8000	   6.7600	  0.0000	 
  1.8000	   7.1400	  0.0000	 
  1.8000	   7.5200	  0.0000	 
  1.8000	   7.9000	  0.0000	 
  1.8000	   8.2800	  0.0000	 
  1.8000	   8.6600	  0.0000	 
  1.8000	   9.0400	  0.0000	 
  1.8000	   9.4200	  0.0000	 
  2.0250	   2.8275	  0.0000	 
  2.0250	   3.1800	  0.0000	 
  2.0250	   3.5325	  0.0000	 
  2.0250	   3.8850	  0.0000	 
  2.0250	   4.2375	  0.0000	 
  2.0250	   4.5900	  0.0000	 
  2.0250	   4.9425	  0.0000	 
  2.0250	   5.2950	  0.0000	 
  2.0250	   5.6475	  0.0000	 
  2.0250	   6.0000	  0.0000	 
  2.0250	   6.3525	  0.0000	 
  2.0250	   6.7050	  0.0000	 
  2.0250	   7.0575	  0.0000	 
  2.0250	   7.4100	  0.0000	 
  2.0250	   7.7625	  0.0000	 
  2.0250	   8.1150	  0.0000	 
  2.0250	   8.4675	  0.0000	 
  2.0250	   8.8200	  0.0000	 
  2.0250	   9.1725	  0.0000	 
  2.2500	   3.0750	  0.0000	 
  2.2500	   3.4000	  0.0000	 
  2.2500	   3.7250	  0.0000	 
  2.2500	   4.0500	  0.0000	 
  2.2500	   4.3750	  0.0000	 
  2.2500	   4.7000	  0.0000	 
  2.2500	   5.0250	  0.0000	 
  2.2500	   5.3500	  0.0000	 
  2.2500	   5.6750	  0.0000	 
  2.2500	   6.0000	  0.0000	 
  2.2500	   6.3250	  0.0000	 
  2.2500	   6.6500	  0.0000	 
  2.2500	   6.9750	  0.0000	 
  2.2500	   7.3000	  0.0000	 
  2.2500	   7.6250	  0.0000	 
  2.2500	   7.9500	  0.0000	 
  2.2500	   8.2750	  0.0000	 
  2.2500	   8.6000	  0.0000	 
  2.2500	   8.9250	  0.0000	 
  2.4750	   3.3225	  0.0000	 
  2.4750	   3.6200	  0.0000	 
  2.4750	   3.9175	  0.0000	 
  2.4750	   4.2150	  0.0000	 
  2.4750	   4.5125	  0.0000	 
  2.4750	   4.8100	  0.0000	 
  2.4750	   5.1075	  0.0000	 
  2.4750	   5.4050	  0.0000	 
  2.4750	   5.7025	  0.0000	 
  2.4750	   6.0000	  0.0000	 
  2.4750	   6.2975	  0.0000	 
  2.4750	   6.5950	  0.0000	 
  2.4750	   6.8925	  0.0000	 
  2.4750	   7.1900	  0.0000	 
  2.4750	   7.4875	  0.0000	 
  2.4750	   7.7850	  0.0000	 
  2.4750	   8.0825	  0.0000	 
  2.4750	   8.3800	  0.0000	 
  2.4750	   8.6775	  0.0000	 
  2.7000	   3.5700	  0.0000	 
  2.7000	   3.8400	  0.0000	 
  2.7000	   4.1100	  0.0000	 
  2.7000	   4.3800	  0.0000	 
  2.7000	   4.6500	  0.0000	 
  2.7000	   4.9200	  0.0000	 
  2.7000	   5.1900	  0.0000	 
  2.7000	   5.4600	  0.0000	 
  2.7000	   5.7300	  0.0000	 
  2.7000	   6.0000	  0.0000	 
  2.7000	   6.2700	  0.0000	 
  2.7000	   6.5400	  0.0000	 
  2.7000	   6.8100	  0.0000	 
  2.7000	   7.0800	  0.0000	 
  2.7000	   7.3500	  0.0000	 
  2.7000	   7.6200	  0.0000	 
  2.7000	   7.8900	  0.0000	 
  2.7000	   8.1600	  0.0000	 
  2.7000	   8.4300	  0.0000	 
  2.9250	   3.8175	  0.0000	 
  2.9250	   4.0600	  0.0000	 
  2.9250	   4.3025	  0.0000	 
  2.9250	   4.5450	  0.0000	 
  2.9250	   4.7875	  0.0000	 
  2.9250	   5.0300	  0.0000	 
  2.9250	   5.2725	  0.0000	 
  2.9250	   5.5150	  0.0000	 
  2.9250	   5.7575	  0.0000	 
  2.9250	   6.0000	  0.0000	 
  2.9250	   6.2425	  0.0000	 
  2.9250	   6.4850	  0.0000	 
  2.9250	   6.7275	  0.0000	 
  2.9250	   6.9700	  0.0000	 
  2.9250	   7.2125	  0.0000	 
  2.9250	   7.4550	  0.0000	 
  2.9250	   7.6975	  0.0000	 
  2.9250	   7.9400	  0.0000	 
  2.9250	   8.1825	  0.0000	 
  3.1500	   4.0650	  0.0000	 
  3.1500	   4.2800	  0.0000	 
  3.1500	   4.4950	  0.0000	 
  3.1500	   4.7100	  0.0000	 
  3.1500	   4.9250	  0.0000	 
  3.1500	   5.1400	  0.0000	 
  3.1500	   5.3550	  0.0000	 
  3.1500	   5.5700	  0.0000	 
  3.1500	   5.7850	  0.0000	 
  3.1500	   6.0000	  0.0000	 
  3.1500	   6.2150	  0.0000	 
  3.1500	   6.4300	  0.0000	 
  3.1500	   6.6450	  0.0000	 
  3.1500	   6.8600	  0.0000	 
  3.1500	   7.0750	  0.0000	 
  3.1500	   7.2900	  0.0000	 
  3.1500	   7.5050	  0.0000	 
  3.1500	   7.7200	  0.0000	 
  3.1500	   7.9350	  0.0000	 
  3.3750	   4.3125	  0.0000	 
  3.3750	   4.5000	  0.0000	 
  3.3750	   4.6875	  0.0000	 
  3.3750	   4.8750	  0.0000	 
  3.3750	   5.0625	  0.0000	 
  3.3750	   5.2500	  0.0000	 
  3.3750	   5.4375	  0.0000	 
  3.3750	   5.6250	  0.0000	 
  3.3750	   5.8125	  0.0000	 
  3.3750	   6.0000	  0.0000	 
  3.3750	   6.1875	  0.0000	 
  3.3750	   6.3750	  0.0000	 
  3.3750	   6.5625	  0.0000	 
  3.3750	   6.7500	  0.0000	 
  3.3750	   6.9375	  0.0000	 
  3.3750	   7.1250	  0.0000	 
  3.3750	   7.3125	  0.0000	 
  3.3750	   7.5000	  0.0000	 
  3.3750	   7.6875	  0.0000	 
  3.6000	   4.5600	  0.0000	 
  3.6000	   4.7200	  0.0000	 
  3.6000	   4.8800	  0.0000	 
  3.6000	   5.0400	  0.0000	 
  3.6000	   5.2000	  0.0000	 
  3.6000	   5.3600	  0.0000	 
  3.6000	   5.5200	  0.0000	 
  3.6000	   5.6800	  0.0000	 
  3.6000	   5.8400	  0.0000	 
  3.6000	   6.0000	  0.0000	 
  3.6000	   6.1600	  0.0000	 
  3.6000	   6.3200	  0.0000	 
  3.6000	   6.4800	  0.0000	 
  3.6000	   6.6400	  0.0000	 
  3.6000	   6.8000	  0.0000	 
  3.6000	   6.9600	  0.0000	 
  3.6000	   7.1200	  0.0000	 
  3.6000	   7.2800	  0.0000	 
  3.6000	   7.4400	  0.0000	 
  3.8250	   4.8075	  0.0000	 
  3.8250	   4.9400	  0.0000	 
  3.8250	   5.0725	  0.0000	 
  3.8250	   5.2050	  0.0000	 
  3.8250	   5.3375	  0.0000	 
  3.8250	   5.4700	  0.0000	 
  3.8250	   5.6025	  0.0000	 
[...]
POINT_DATA 	    1451 
VECTORS U float 
 50.0000	   0.0000	   0.0000	
 50.0000	   0.0000	   0.0000	
 50.0000	   0.0000	   0.0000	
 50.0000	   0.0000	   0.0000	
 50.0000	  -0.0000	   0.0000	
 50.0000	  -0.0000	   0.0000	
 50.0000	   0.0000	   0.0000	
 50.0000	  -0.0000	   0.0000	
 50.0000	  -0.0000	   0.0000	
 50.0000	   0.0000	   0.0000	
 50.0000	  -0.0000	   0.0000	
 50.0000	  -0.0000	   0.0000	
 50.0000	   0.0000	   0.0000	
 50.0000	   0.0000	   0.0000	
 50.0000	  -0.0000	   0.0000	
 50.0000	  -0.0000	   0.0000	
 50.0000	   0.0000	   0.0000	
 50.0000	   0.0000	   0.0000	
 50.0000	  -0.0000	   0.0000	
 49.0342	   6.3515	   0.0000	
 50.4202	   8.7669	   0.0000	
 50.2124	  13.3359	   0.0000	
 49.7744	  19.4299	   0.0000	
 50.1761	  12.0401	   0.0000	
 49.4080	  24.2425	   0.0000	
 49.2573	  29.5722	   0.0000	
 49.1006	  36.2849	   0.0000	
 49.7809	  39.7440	   0.0000	
 50.1104	  41.4835	   0.0000	
 49.5980	  40.7264	   0.0000	
 50.9774	  40.1061	   0.0000	
 50.3870	  33.8413	   0.0000	
 50.7799	  29.5330	   0.0000	
 50.1452	  27.0246	   0.0000	
 50.0431	  18.8110	   0.0000	
 50.1865	  21.4531	   0.0000	
 49.1029	  19.1498	   0.0000	
 50.6278	  18.1012	   0.0000	
 48.4221	  13.0236	   0.0000	
 45.7615	  23.0744	   0.0000	
 45.3876	  35.2621	   0.0000	
 55.6515	  26.1950	   0.0000	
 41.3745	  40.4946	   0.0000	
 45.6866	  43.5652	   0.0000	
 44.8259	  56.7659	   0.0000	
 46.7350	  65.1884	   0.0000	
 48.4472	  69.1765	   0.0000	
 49.0107	  71.4465	   0.0000	
 50.4556	  73.4533	   0.0000	
 51.1399	  72.6184	   0.0000	
 55.1345	  68.8480	   0.0000	
 54.0521	  53.9754	   0.0000	
 50.4408	  52.2663	   0.0000	
 56.2238	  49.3979	   0.0000	
 47.6905	  37.6388	   0.0000	
 52.3035	  40.1059	   0.0000	
 51.3426	  38.1830	   0.0000	
 41.6042	  23.4708	   0.0000	
 40.0140	  47.4781	   0.0000	
 54.6001	  38.5462	   0.0000	
 44.5507	  53.7834	   0.0000	
 44.0824	  51.8702	   0.0000	
 39.7692	  61.8937	   0.0000	
 41.9866	  68.4284	   0.0000	
 45.5697	  70.2906	   0.0000	
 47.7118	  72.2884	   0.0000	
 47.6094	  74.9262	   0.0000	
 49.6505	  79.0259	   0.0000	
 50.8616	  80.0718	   0.0000	
 55.0694	  84.0764	   0.0000	
 61.5183	  82.2752	   0.0000	
 51.5267	  70.0888	   0.0000	
 54.2099	  70.4042	   0.0000	
 57.4206	  68.1974	   0.0000	
 48.9056	  56.7803	   0.0000	
 50.0585	  56.7559	   0.0000	
 23.5942	  48.8097	   0.0000	
 51.2282	  47.3112	   0.0000	
 45.3773	  60.9720	   0.0000	
 43.5480	  64.0756	   0.0000	
 39.2979	  63.8123	   0.0000	
 38.5843	  64.6153	   0.0000	
 41.7468	  65.4826	   0.0000	
 45.0893	  67.9761	   0.0000	
 46.7386	  69.8648	   0.0000	
 47.0563	  71.4973	   0.0000	
 47.6061	  71.9890	   0.0000	
 49.8718	  76.7933	   0.0000	
 52.4786	  77.4508	   0.0000	
 59.7117	  81.1832	   0.0000	
 59.2569	  85.8496	   0.0000	
 51.5897	  82.2954	   0.0000	
 58.8888	  86.2905	   0.0000	
 54.9904	  83.3739	   0.0000	
 53.1632	  71.1518	   0.0000	
 40.9700	  51.2341	   0.0000	
 42.7622	  67.3956	   0.0000	
 41.2484	  71.0683	   0.0000	
 45.1111	  71.9043	   0.0000	
 38.9481	  67.4274	   0.0000	
 38.9728	  65.5772	   0.0000	
 41.0971	  67.5948	   0.0000	
 44.4988	  68.9660	   0.0000	
 45.7405	  71.0172	   0.0000	
 46.0113	  73.0867	   0.0000	
 47.8769	  74.9668	   0.0000	
 47.3284	  74.0940	   0.0000	
 51.7116	  79.5001	   0.0000	
 57.0890	  78.3557	   0.0000	
 56.9888	  83.9484	   0.0000	
 52.1197	  93.6317	   0.0000	
 53.3840	  92.8701	   0.0000	
 58.9001	  99.3274	   0.0000	
 60.1811	 100.0617	   0.0000	
 36.9278	  70.2307	   0.0000	
 41.8686	  75.5519	   0.0000	
 42.6495	  72.3412	   0.0000	
 45.8595	  73.2485	   0.0000	
 39.9304	  68.0843	   0.0000	
 38.7687	  68.1827	   0.0000	
 41.3913	  68.4043	   0.0000	
 43.6433	  70.5113	   0.0000	
 44.9575	  72.6506	   0.0000	
 44.6930	  75.0218	   0.0000	
 46.7494	  77.9418	   0.0000	
 47.7981	  79.6304	   0.0000	
 47.8012	  79.2710	   0.0000	
 56.2507	  84.3520	   0.0000	
 54.6509	  85.5574	   0.0000	
 48.2082	  93.4924	   0.0000	
 52.0502	  98.7648	   0.0000	
 52.7058	 102.8754	   0.0000	
 53.5869	 114.8739	   0.0000	
 38.4234	  63.2337	   0.0000	
 44.1243	  64.2919	   0.0000	
 43.3074	  63.2654	   0.0000	
 45.4714	  65.9028	   0.0000	
 39.0755	  65.1311	   0.0000	
 39.3173	  64.4083	   0.0000	
 40.3694	  66.7925	   0.0000	
 42.6193	  69.7084	   0.0000	
 43.4798	  72.3565	   0.0000	
 43.9564	  73.8978	   0.0000	
 45.3550	  74.7289	   0.0000	
 46.5177	  77.4755	   0.0000	
 48.1900	  79.2133	   0.0000	
 51.4718	  76.9130	   0.0000	
 54.8558	  84.0083	   0.0000	
 47.9112	  85.6151	   0.0000	
 47.5688	  85.6491	   0.0000	
 50.6120	  90.4448	   0.0000	
 45.7015	  98.5979	   0.0000	
 41.0302	  59.8049	   0.0000	
 44.1496	  62.7062	   0.0000	
 42.3497	  63.2252	   0.0000	
 42.9045	  69.1400	   0.0000	
 39.5334	  66.2434	   0.0000	
 38.1786	  67.4429	   0.0000	
 39.2566	  69.8960	   0.0000	
 41.3272	  72.1885	   0.0000	
 42.6937	  73.9321	   0.0000	
 42.6133	  76.1351	   0.0000	
 44.9833	  78.4424	   0.0000	
 44.7839	  78.4806	   0.0000	
 46.7772	  81.6740	   0.0000	
 52.3304	  81.5320	   0.0000	
 49.9122	  80.5762	   0.0000	
 50.2122	  89.4052	   0.0000	
 48.4352	  85.3590	   0.0000	
 46.7079	  84.9092	   0.0000	
 44.2034	  93.7681	   0.0000	
 41.6188	  58.8180	   0.0000	
 42.3713	  62.4156	   0.0000	
 39.1016	  64.9454	   0.0000	
 43.2843	  66.9080	   0.0000	
 38.0679	  66.3616	   0.0000	
 37.2103	  67.7130	   0.0000	
 38.3106	  69.5128	   0.0000	
 40.4202	  71.6689	   0.0000	
 41.1673	  74.3928	   0.0000	
 41.2781	  76.6601	   0.0000	
 43.6044	  78.6330	   0.0000	
 44.7880	  80.6563	   0.0000	
 44.3854	  80.7838	   0.0000	
 50.7751	  82.2958	   0.0000	
 51.8481	  83.6646	   0.0000	
 44.6127	  84.4825	   0.0000	
 51.2569	  89.5675	   0.0000	
 48.8911	  87.0483	   0.0000	
 40.2474	  90.9640	   0.0000	
 39.7810	  59.5070	   0.0000	
 38.7618	  64.0567	   0.0000	
 40.3689	  63.4012	   0.0000	
 40.9589	  67.1676	   0.0000	
 36.6196	  67.2136	   0.0000	
 36.3663	  68.2797	   0.0000	
 37.2606	  70.3991	   0.0000	
 38.6278	  73.5062	   0.0000	
 39.7007	  76.0482	   0.0000	
 40.0709	  77.6363	   0.0000	
 42.5475	  78.9382	   0.0000	
 43.1295	  79.9471	   0.0000	
 44.5517	  82.0163	   0.0000	
 48.1880	  79.6069	   0.0000	
 50.5126	  82.2586	   0.0000	
 48.2689	  84.6442	   0.0000	
 43.4476	  82.9959	   0.0000	
 52.0284	  88.0756	   0.0000	
 44.6320	  89.1912	   0.0000	
 36.1750	  62.0125	   0.0000	
 40.6915	  62.7718	   0.0000	
 37.8036	  63.4207	   0.0000	
 38.6785	  67.3262	   0.0000	
 35.5268	  67.1454	   0.0000	
 35.1385	  68.7942	   0.0000	
 35.4784	  71.1733	   0.0000	
 37.0045	  73.4759	   0.0000	
 38.5007	  75.4007	   0.0000	
 38.1731	  77.9771	   0.0000	
 41.8693	  80.5749	   0.0000	
 42.3244	  81.0764	   0.0000	
 43.0949	  82.1482	   0.0000	
 48.8822	  81.6899	   0.0000	
 47.6366	  81.2065	   0.0000	
 48.0453	  85.3757	   0.0000	
 46.9052	  86.3838	   0.0000	
 42.8351	  86.1085	   0.0000	
 49.3076	  92.2896	   0.0000	
 39.7507	  60.9328	   0.0000	
 37.5812	  63.3675	   0.0000	
 35.5886	  65.3262	   0.0000	
 36.6739	  68.2768	   0.0000	
 34.0436	  68.8975	   0.0000	
 33.5219	  70.5863	   0.0000	
 34.2011	  72.4960	   0.0000	
 35.7651	  74.5703	   0.0000	
 36.3193	  77.5667	   0.0000	
 35.9419	  80.5060	   0.0000	
 39.5316	  83.0688	   0.0000	
 41.8132	  85.3309	   0.0000	
 42.4213	  85.5823	   0.0000	
 46.9979	  83.9553	   0.0000	
 48.4902	  85.8075	   0.0000	
 44.4389	  87.3575	   0.0000	
 45.7507	  91.6085	   0.0000	
 47.9368	  90.2388	   0.0000	
 38.7119	  90.0476	   0.0000	
 35.7628	  57.6648	   0.0000	
 33.1264	  59.9896	   0.0000	
 33.6999	  63.2103	   0.0000	
 33.9647	  67.6109	   0.0000	
 31.7886	  69.7152	   0.0000	
 32.3268	  71.5864	   0.0000	
 32.3504	  73.8287	   0.0000	
 33.0271	  77.5569	   0.0000	
 33.3941	  81.4778	   0.0000	
 36.1759	  81.2162	   0.0000	
 37.8137	  80.3478	   0.0000	
 39.0741	  82.0428	   0.0000	
 42.4439	  84.6326	   0.0000	
 46.8380	  82.5904	   0.0000	
 45.6079	  84.1760	   0.0000	
 45.7071	  87.5107	   0.0000	
 41.1174	  88.8651	   0.0000	
 49.4823	  85.8021	   0.0000	
 49.9841	  79.2380	   0.0000	
 31.0768	  59.9304	   0.0000	
 29.5939	  61.6487	   0.0000	
 29.2867	  65.6056	   0.0000	
 30.6040	  68.6814	   0.0000	
 29.7108	  70.1789	   0.0000	
 30.0428	  72.6916	   0.0000	
 29.2022	  75.4533	   0.0000	
 29.1630	  78.4766	   0.0000	
 34.0849	  78.3857	   0.0000	
 32.4035	  81.1066	   0.0000	
 39.3518	  85.1408	   0.0000	
 36.7176	  83.2087	   0.0000	
 39.4160	  84.7559	   0.0000	
 46.4423	  84.3289	   0.0000	
 43.3872	  87.2048	   0.0000	
 42.5758	  91.0063	   0.0000	
 43.5752	  93.3796	   0.0000	
 47.7812	  85.8142	   0.0000	
 56.0420	  77.7672	   0.0000	
 26.6276	  58.2607	   0.0000	
 23.3283	  64.5370	   0.0000	
 27.2553	  68.7806	   0.0000	
 28.4414	  72.2454	   0.0000	
 27.2510	  74.0356	   0.0000	
 27.2432	  75.9029	   0.0000	
 26.9339	  76.7940	   0.0000	
 31.7438	  74.8336	   0.0000	
 31.4538	  76.1679	   0.0000	
 26.1074	  81.5475	   0.0000	
 33.6810	  87.2150	   0.0000	
 39.2566	  91.2959	   0.0000	
 38.3548	  89.4161	   0.0000	
 40.8503	  90.4393	   0.0000	
 41.6088	  97.7642	   0.0000	
 38.2346	 102.4011	   0.0000	
 42.3544	 100.4086	   0.0000	
 56.0133	  89.8159	   0.0000	
 55.2039	  78.8016	   0.0000	
 19.7449	  54.9102	   0.0000	
 22.7836	  58.7772	   0.0000	
 14.2752	  67.6851	   0.0000	
 23.1753	  79.8008	   0.0000	
 24.6271	  84.5541	   0.0000	
 26.8362	  86.4142	   0.0000	
 31.8771	  84.6755	   0.0000	
 30.2720	  85.3051	   0.0000	
 23.0689	  91.5542	   0.0000	
 29.2068	  89.7050	   0.0000	
 25.9925	  87.2843	   0.0000	
 30.4353	  94.0408	   0.0000	
 41.6160	  99.1045	   0.0000	
 36.2132	  97.2038	   0.0000	
 30.5694	 104.6127	   0.0000	
 35.9649	 106.8268	   0.0000	
 51.3046	  95.9077	   0.0000	
 49.4186	  85.5793	   0.0000	
 66.1639	  72.7450	   0.0000	
  4.4731	  48.4136	   0.0000	
  0.2767	  55.7151	   0.0000	
 13.5998	  63.6684	   0.0000	
 16.6569	  69.7612	   0.0000	
 23.0147	  74.0165	   0.0000	
 32.9132	  74.6267	   0.0000	
 29.7201	  74.6861	   0.0000	
 17.4303	  79.3412	   0.0000	
 26.5652	  79.0074	   0.0000	
 20.3238	  83.0722	   0.0000	
 30.4232	  89.2013	   0.0000	
 16.3779	  88.3202	   0.0000	
 25.9044	  96.9325	   0.0000	
 43.3610	 100.8131	   0.0000	
 22.2779	 110.2207	   0.0000	
 32.6473	 115.6772	   0.0000	
 36.8254	 108.0489	   0.0000	
 64.8447	 100.5348	   0.0000	
 72.9964	  84.2586	   0.0000	
 -2.8726	  59.1987	   0.0000	
  4.3835	  68.0803	   0.0000	
  9.3651	  74.3649	   0.0000	
 24.3329	  79.5091	   0.0000	
 33.3653	  83.4188	   0.0000	
 25.7476	  82.3351	   0.0000	
 11.3767	  90.1135	   0.0000	
 20.5067	  93.7447	   0.0000	
 17.1884	  99.8746	   0.0000	
 13.4359	 104.6230	   0.0000	
 15.4105	 108.6296	   0.0000	
 21.1999	 116.6085	   0.0000	
  2.8176	 121.3682	   0.0000	
 19.8538	 127.1009	   0.0000	
 14.8760	 141.5745	   0.0000	
  7.1728	 153.0549	   0.0000	
 27.1836	 146.3809	   0.0000	
 59.4009	 127.4585	   0.0000	
 69.7188	 101.8433	   0.0000	
 -2.7964	  33.0087	   0.0000	
  4.3190	  39.2183	   0.0000	
 16.0288	  46.7504	   0.0000	
 25.6288	  54.8324	   0.0000	
  0.5431	  63.3097	   0.0000	
  0.3584	  64.0656	   0.0000	
  8.6507	  68.3249	   0.0000	
  0.4396	  72.2645	   0.0000	
  6.8304	  75.8512	   0.0000	
  0.3268	  78.9272	   0.0000	
  6.4646	  82.0012	   0.0000	
  0.3446	  85.2719	   0.0000	
  6.8678	  88.4474	   0.0000	
 -0.8557	  91.2258	   0.0000	
 -0.5597	  90.3840	   0.0000	
 -6.0481	  95.2706	   0.0000	
 -0.1443	  93.4101	   0.0000	
 22.1111	  89.6072	   0.0000	
 59.7912	  78.7970	   0.0000	
 -0.0000	  -0.0000	   0.0000	
  0.0000	   0.0000	   0.0000	
 -0.0000	   0.0000	   0.0000	
 -0.0000	   0.0000	   0.0000	
  0.0000	  -0.0000	   0.0000	
 -0.0000	   0.0000	   0.0000	
  0.0000	   0.0000	   0.0000	
  0.0000	  -0.0000	   0.0000	
 -0.0000	  -0.0000	   0.0000	
  0.0000	   0.0000	   0.0000	
  0.0000	   0.0000	   0.0000	
  0.0000	  -0.0000	   0.0000	
 -0.0000	   0.0000	   0.0000	
 -0.0000	   0.0000	   0.0000	
 -0.0000	  -0.0000	   0.0000	
 -0.0000	  -0.0000	   0.0000	
  0.0000	  -0.0000	   0.0000	
 -0.0000	  -0.0000	   0.0000	
  0.0000	   0.0000	   0.0000	
 50.0000	  50.0000	   0.0000	
 50.0000	  -0.0000	   0.0000	
 68.5706	  50.0430	   0.0000	
 49.9756	  16.5354	   0.0000	
 86.6861	  49.9479	   0.0000	
 50.6565	  33.3769	   0.0000	
 81.6057	  55.3353	   0.0000	
 54.6469	  50.7354	   0.0000	
 77.6026	  60.2950	   0.0000	
 57.3832	  68.0659	   0.0000	
 48.3092	  80.2004	   0.0000	
 51.4761	  79.9761	   0.0000	
 48.8300	  76.8698	   0.0000	
 76.1036	 103.6922	   0.0000	
 44.7566	  75.7498	   0.0000	
 66.8849	  93.1440	   0.0000	
 47.4968	  70.7351	   0.0000	
 55.5402	  83.0060	   0.0000	
 48.8025	  67.2841	   0.0000	
 55.0595	  80.1563	   0.0000	
 47.9125	  65.3469	   0.0000	
 51.1009	  75.7742	   0.0000	
 43.8285	  65.0321	   0.0000	
 56.3478	  76.8038	   0.0000	
 38.7894	  64.3490	   0.0000	
 62.6974	  77.0890	   0.0000	
 41.3077	  58.9439	   0.0000	
 49.1765	  67.7426	   0.0000	
 34.4624	  57.3171	   0.0000	
 59.0744	  69.1132	   0.0000	
 27.8458	  54.8839	   0.0000	
 65.3424	  67.7806	   0.0000	
 17.6535	  52.7409	   0.0000	
 68.6284	  63.8476	   0.0000	
 17.8477	  41.9902	   0.0000	
 78.0838	  60.3345	   0.0000	
-16.6397	  47.9932	   0.0000	
107.6854	  67.0230	   0.0000	
-11.1594	  25.4081	   0.0000	
111.3017	  51.4932	   0.0000	
 -0.0000	   0.0000	   0.0000	
 -0.0000	  -0.0000	   0.0000	
 50.5492	  50.0000	   0.0000	
 88.9602	 158.7149	   0.0000	
 47.0681	  49.6218	   0.0000	
 52.7111	 140.9465	   0.0000	
 45.2895	  49.2314	   0.0000	
 35.1864	 125.0929	   0.0000	
 44.9418	  47.8568	   0.0000	
 23.4093	 111.4966	   0.0000	
 43.1141	  47.4456	   0.0000	
 24.1789	 105.7767	   0.0000	
 44.1970	  46.0042	   0.0000	
 22.9396	 100.8719	   0.0000	
 43.5613	  45.8699	   0.0000	
 24.9260	  97.8138	   0.0000	
 44.5564	  44.8475	   0.0000	
 24.1138	  93.6576	   0.0000	
 43.3628	  44.4526	   0.0000	
 26.7143	  90.3867	   0.0000	
 40.3436	  44.7313	   0.0000	
 29.8270	  87.0413	   0.0000	
 40.4791	  43.3704	   0.0000	
 35.3533	  84.5527	   0.0000	
 45.8350	  40.1948	   0.0000	
 26.5609	  76.7132	   0.0000	
 40.7212	  40.5391	   0.0000	
 34.8790	  75.1866	   0.0000	
 40.9026	  37.6685	   0.0000	
 37.1573	  70.1002	   0.0000	
 39.0484	  33.7173	   0.0000	
 38.5896	  64.0244	   0.0000	
 41.2023	  28.2303	   0.0000	
 43.5422	  55.9327	   0.0000	
 25.5886	  26.9422	   0.0000	
 60.8952	  50.7117	   0.0000	
 18.6932	  20.0576	   0.0000	
 68.9161	  39.5802	   0.0000	
 37.2980	   2.8609	   0.0000	
 62.2972	  22.1389	   0.0000	
 26.6254	   0.4930	   0.0000	
 -2.8843	  -1.7547	   0.0000	
 -0.0000	   0.0000	   0.0000	
 -0.0000	  -0.0000	   0.0000	
 54.2539	  50.0000	   0.0000	
-45.0490	  66.5771	   0.0000	
 51.0081	  50.7206	   0.0000	
-13.0611	  68.2608	   0.0000	
 48.5522	  51.0636	   0.0000	
  2.2060	  68.2270	   0.0000	
 46.1176	  52.0493	   0.0000	
  9.7453	  67.9270	   0.0000	
 46.6292	  52.2837	   0.0000	
 11.7281	  66.6205	   0.0000	
 46.7905	  52.8202	   0.0000	
 11.6413	  65.3779	   0.0000	
 46.5834	  53.6289	   0.0000	
 13.1735	  64.0513	   0.0000	
 46.5240	  53.5434	   0.0000	
 14.9862	  62.3121	   0.0000	
 45.9347	  54.4137	   0.0000	
 16.7667	  60.8757	   0.0000	
 44.9272	  55.0740	   0.0000	
 19.8097	  59.8262	   0.0000	
 49.7524	  54.8665	   0.0000	
 15.3162	  58.1600	   0.0000	
 50.0198	  55.4007	   0.0000	
 17.0335	  55.7355	   0.0000	
 54.6574	  55.5619	   0.0000	
 17.2537	  53.2011	   0.0000	
 56.7271	  56.3985	   0.0000	
  8.5007	  49.8418	   0.0000	
 59.8217	  56.8507	   0.0000	
 12.1378	  47.3134	   0.0000	
 62.3435	  54.5397	   0.0000	
 15.0108	  41.4561	   0.0000	
 61.2774	  53.5456	   0.0000	
 20.6338	  37.0525	   0.0000	
 67.8930	  53.9490	   0.0000	
 25.1388	  33.0609	   0.0000	
 65.3135	  52.9214	   0.0000	
 -0.5435	  33.1210	   0.0000	
 39.6283	  52.7025	   0.0000	
  0.5785	  38.6901	   0.0000	
 29.3948	  50.2197	   0.0000	
 -0.2993	  41.4805	   0.0000	
 44.8899	  50.0000	   0.0000	
 11.3947	  54.0855	   0.0000	
 44.6451	  50.6401	   0.0000	
 -2.3929	  59.2912	   0.0000	
 42.6933	  50.8083	   0.0000	
  1.7292	  59.8663	   0.0000	
 40.7629	  50.7329	   0.0000	
  5.1680	  59.3650	   0.0000	
 41.1813	  51.2576	   0.0000	
  6.3919	  59.2978	   0.0000	
 41.7226	  51.7587	   0.0000	
  6.8506	  59.4415	   0.0000	
 40.1939	  51.8292	   0.0000	
 10.2472	  58.6503	   0.0000	
 40.7134	  52.6524	   0.0000	
  8.8725	  59.6372	   0.0000	
 42.0644	  53.2832	   0.0000	
 11.0204	  58.9337	   0.0000	
 41.1066	  53.8630	   0.0000	
 12.9194	  58.6487	   0.0000	
 43.4940	  55.1259	   0.0000	
 13.9752	  58.9118	   0.0000	
 42.2415	  55.6755	   0.0000	
 13.5866	  58.7108	   0.0000	
 42.9399	  57.5117	   0.0000	
  9.1815	  60.5033	   0.0000	
 45.4167	  60.0146	   0.0000	
 12.1397	  61.2758	   0.0000	
 44.5264	  61.4271	   0.0000	
 11.1428	  61.5794	   0.0000	
 51.1045	  66.4234	   0.0000	
  6.7190	  64.1045	   0.0000	
 48.9249	  69.3941	   0.0000	
  9.3143	  63.9631	   0.0000	
 48.2118	  73.5523	   0.0000	
 14.0190	  63.2690	   0.0000	
 50.5413	  78.2054	   0.0000	
 19.9728	  60.8342	   0.0000	
 41.5200	  84.1888	   0.0000	
 19.8386	  67.8136	   0.0000	
 21.0009	  85.5147	   0.0000	
 22.6204	  72.2751	   0.0000	
 44.1802	  50.0000	   0.0000	
 -1.4700	  45.6647	   0.0000	
 44.1968	  49.9130	   0.0000	
  2.3193	  44.8246	   0.0000	
 43.5294	  50.0917	   0.0000	
  4.9574	  44.0729	   0.0000	
 42.3286	  49.8094	   0.0000	
  7.9162	  43.2493	   0.0000	
 42.6122	  50.0895	   0.0000	
  6.8546	  44.7409	   0.0000	
 42.5034	  49.9831	   0.0000	
  5.5425	  46.7638	   0.0000	
 41.4557	  49.4905	   0.0000	
  6.9909	  47.0526	   0.0000	
 41.3658	  49.5589	   0.0000	
  7.7103	  48.1631	   0.0000	
 40.8009	  49.5475	   0.0000	
  9.9485	  48.2735	   0.0000	
 39.5153	  48.9261	   0.0000	
 11.2877	  48.6120	   0.0000	
 41.2620	  50.0389	   0.0000	
  9.5533	  50.5521	   0.0000	
 38.0483	  49.0178	   0.0000	
 14.7694	  49.0932	   0.0000	
 39.4357	  50.5493	   0.0000	
 14.9781	  50.0592	   0.0000	
 38.6064	  50.7459	   0.0000	
 13.7524	  51.4515	   0.0000	
 39.1497	  52.3965	   0.0000	
 14.8677	  53.1177	   0.0000	
 38.1471	  53.0219	   0.0000	
 15.1067	  54.0740	   0.0000	
 37.2113	  54.9700	   0.0000	
 15.3486	  56.4097	   0.0000	
 38.8968	  59.4848	   0.0000	
 14.3246	  60.0792	   0.0000	
 34.3439	  61.1127	   0.0000	
 21.9111	  60.1533	   0.0000	
 39.6813	  67.3595	   0.0000	
 16.8742	  63.9881	   0.0000	
 17.2718	  65.2184	   0.0000	
 38.6163	  57.8059	   0.0000	
 50.6793	  50.0000	   0.0000	
  0.6592	  30.3211	   0.0000	
 48.0196	  49.3895	   0.0000	
  2.0526	  31.7518	   0.0000	
 45.1131	  48.7175	   0.0000	
  3.4162	  33.1906	   0.0000	
 44.3407	  48.6161	   0.0000	
  4.6062	  34.6462	   0.0000	
 45.4944	  49.1565	   0.0000	
  7.0381	  35.6618	   0.0000	
 45.2874	  49.1130	   0.0000	
  7.8196	  37.5694	   0.0000	
 41.9657	  46.8455	   0.0000	
  8.6246	  38.8056	   0.0000	
 41.5561	  47.0518	   0.0000	
  9.9347	  38.9976	   0.0000	
 41.4398	  47.6792	   0.0000	
 10.6455	  39.7086	   0.0000	
 40.1711	  47.8042	   0.0000	
 12.0963	  40.9567	   0.0000	
 39.8148	  48.1077	   0.0000	
 13.5195	  42.1919	   0.0000	
 38.5755	  48.1736	   0.0000	
 15.0582	  43.0928	   0.0000	
 38.2825	  48.7973	   0.0000	
 15.5590	  45.0208	   0.0000	
 37.6464	  49.5986	   0.0000	
 15.5733	  47.1175	   0.0000	
 37.4672	  49.2208	   0.0000	
 16.3619	  47.0034	   0.0000	
 35.7986	  49.5243	   0.0000	
 16.9033	  47.9157	   0.0000	
 34.4712	  49.5705	   0.0000	
 22.3095	  46.7704	   0.0000	
 36.0936	  52.0483	   0.0000	
 18.3544	  51.6316	   0.0000	
 32.8641	  51.2859	   0.0000	
 21.9855	  51.8067	   0.0000	
 30.2687	  51.3836	   0.0000	
 23.8744	  53.2713	   0.0000	
 29.4240	  54.9929	   0.0000	
 21.1179	  57.0295	   0.0000	
  0.0000	   0.0000	   0.0000	
  0.0000	   0.0000	   0.0000	
 -0.0000	   0.0000	   0.0000	
  0.0000	  -0.0000	   0.0000	
 -0.0000	   0.0000	   0.0000	
  0.0000	   0.0000	   0.0000	
 -0.0000	   0.0000	   0.0000	
 -0.0000	  -0.0000	   0.0000	
 -0.0000	  -0.0000	   0.0000	
 -0.0000	   0.0000	   0.0000	
 -0.0000	  -0.0000	   0.0000	
 -0.0000	  -0.0000	   0.0000	
 -0.0000	   0.0000	   0.0000	
 -0.0000	  -0.0000	   0.0000	