# vtk DataFile Version 3.0 
Results 
ASCII 
DATASET UNSTRUCTURED_GRID 
POINTS 	    1451 float 
  0.0000	   0.6000	  0.0000	 
  0.0000	   1.2000	  0.0000	 
  0.0000	   1.8000	  0.0000	 
  0.0000	   2.4000	  0.0000	 
  0.0000	   3.0000	  0.0000	 
  0.0000	   3.6000	  0.0000	 
  0.0000	   4.2000	  0.0000	 
  0.0000	   4.8000	  0.0000	 
  0.0000	   5.4000	  0.0000	 
  0.0000	   6.0000	  0.0000	 
  0.0000	   6.6000	  0.0000	 
  0.0000	   7.2000	  0.0000	 
  0.0000	   7.8000	  0.0000	 
  0.0000	   8.4000	  0.0000	 
  0.0000	   9.0000	  0.0000	 
  0.0000	   9.6000	  0.0000	 
  0.0000	  10.2000	  0.0000	 
  0.0000	  10.8000	  0.0000	 
  0.0000	  11.4000	  0.0000	 
  0.2250	   0.8475	  0.0000	 
  0.2250	   1.4200	  0.0000	 
  0.2250	   1.9925	  0.0000	 
  0.2250	   2.5650	  0.0000	 
  0.2250	   3.1375	  0.0000	 
  0.2250	   3.7100	  0.0000	 
  0.2250	   4.2825	  0.0000	 
  0.2250	   4.8550	  0.0000	 
  0.2250	   5.4275	  0.0000	 
  0.2250	   6.0000	  0.0000	 
  0.2250	   6.5725	  0.0000	 
  0.2250	   7.1450	  0.0000	 
  0.2250	   7.7175	  0.0000	 
  0.2250	   8.2900	  0.0000	 
  0.2250	   8.8625	  0.0000	 
  0.2250	   9.4350	  0.0000	 
  0.2250	  10.0075	  0.0000	 
  0.2250	  10.5800	  0.0000	 
  0.2250	  11.1525	  0.0000	 
  0.4500	   1.0950	  0.0000	 
  0.4500	   1.6400	  0.0000	 
  0.4500	   2.1850	  0.0000	 
  0.4500	   2.7300	  0.0000	 
  0.4500	   3.2750	  0.0000	 
  0.4500	   3.8200	  0.0000	 
  0.4500	   4.3650	  0.0000	 
  0.4500	   4.9100	  0.0000	 
  0.4500	   5.4550	  0.0000	 
  0.4500	   6.0000	  0.0000	 
  0.4500	   6.5450	  0.0000	 
  0.4500	   7.0900	  0.0000	 
  0.4500	   7.6350	  0.0000	 
  0.4500	   8.1800	  0.0000	 
  0.4500	   8.7250	  0.0000	 
  0.4500	   9.2700	  0.0000	 
  0.4500	   9.8150	  0.0000	 
  0.4500	  10.3600	  0.0000	 
  0.4500	  10.9050	  0.0000	 
  0.6750	   1.3425	  0.0000	 
  0.6750	   1.8600	  0.0000	 
  0.6750	   2.3775	  0.0000	 
  0.6750	   2.8950	  0.0000	 
  0.6750	   3.4125	  0.0000	 
  0.6750	   3.9300	  0.0000	 
  0.6750	   4.4475	  0.0000	 
  0.6750	   4.9650	  0.0000	 
  0.6750	   5.4825	  0.0000	 
  0.6750	   6.0000	  0.0000	 
  0.6750	   6.5175	  0.0000	 
  0.6750	   7.0350	  0.0000	 
  0.6750	   7.5525	  0.0000	 
  0.6750	   8.0700	  0.0000	 
  0.6750	   8.5875	  0.0000	 
  0.6750	   9.1050	  0.0000	 
  0.6750	   9.6225	  0.0000	 
  0.6750	  10.1400	  0.0000	 
  0.6750	  10.6575	  0.0000	 
  0.9000	   1.5900	  0.0000	 
  0.9000	   2.0800	  0.0000	 
  0.9000	   2.5700	  0.0000	 
  0.9000	   3.0600	  0.0000	 
  0.9000	   3.5500	  0.0000	 
  0.9000	   4.0400	  0.0000	 
  0.9000	   4.5300	  0.0000	 
  0.9000	   5.0200	  0.0000	 
  0.9000	   5.5100	  0.0000	 
  0.9000	   6.0000	  0.0000	 
  0.9000	   6.4900	  0.0000	 
  0.9000	   6.9800	  0.0000	 
  0.9000	   7.4700	  0.0000	 
  0.9000	   7.9600	  0.0000	 
  0.9000	   8.4500	  0.0000	 
  0.9000	   8.9400	  0.0000	 
  0.9000	   9.4300	  0.0000	 
  0.9000	   9.9200	  0.0000	 
  0.9000	  10.4100	  0.0000	 
  1.1250	   1.8375	  0.0000	 
  1.1250	   2.3000	  0.0000	 
  1.1250	   2.7625	  0.0000	 
  1.1250	   3.2250	  0.0000	 
  1.1250	   3.6875	  0.0000	 
  1.1250	   4.1500	  0.0000	 
  1.1250	   4.6125	  0.0000	 
  1.1250	   5.0750	  0.0000	 
  1.1250	   5.5375	  0.0000	 
  1.1250	   6.0000	  0.0000	 
  1.1250	   6.4625	  0.0000	 
  1.1250	   6.9250	  0.0000	 
  1.1250	   7.3875	  0.0000	 
  1.1250	   7.8500	  0.0000	 
  1.1250	   8.3125	  0.0000	 
  1.1250	   8.7750	  0.0000	 
  1.1250	   9.2375	  0.0000	 
  1.1250	   9.7000	  0.0000	 
  1.1250	  10.1625	  0.0000	 
  1.3500	   2.0850	  0.0000	 
  1.3500	   2.5200	  0.0000	 
  1.3500	   2.9550	  0.0000	 
  1.3500	   3.3900	  0.0000	 
  1.3500	   3.8250	  0.0000	 
  1.3500	   4.2600	  0.0000	 
  1.3500	   4.6950	  0.0000	 
  1.3500	   5.1300	  0.0000	 
  1.3500	   5.5650	  0.0000	 
  1.3500	   6.0000	  0.0000	 
  1.3500	   6.4350	  0.0000	 
  1.3500	   6.8700	  0.0000	 
  1.3500	   7.3050	  0.0000	 
  1.3500	   7.7400	  0.0000	 
  1.3500	   8.1750	  0.0000	 
  1.3500	   8.6100	  0.0000	 
  1.3500	   9.0450	  0.0000	 
  1.3500	   9.4800	  0.0000	 
  1.3500	   9.9150	  0.0000	 
  1.5750	   2.3325	  0.0000	 
  1.5750	   2.7400	  0.0000	 
  1.5750	   3.1475	  0.0000	 
  1.5750	   3.5550	  0.0000	 
  1.5750	   3.9625	  0.0000	 
  1.5750	   4.3700	  0.0000	 
  1.5750	   4.7775	  0.0000	 
  1.5750	   5.1850	  0.0000	 
  1.5750	   5.5925	  0.0000	 
  1.5750	   6.0000	  0.0000	 
  1.5750	   6.4075	  0.0000	 
  1.5750	   6.8150	  0.0000	 
  1.5750	   7.2225	  0.0000	 
  1.5750	   7.6300	  0.0000	 
  1.5750	   8.0375	  0.0000	 
  1.5750	   8.4450	  0.0000	 
  1.5750	   8.8525	  0.0000	 
  1.5750	   9.2600	  0.0000	 
  1.5750	   9.6675	  0.0000	 
  1.8000	   2.5800	  0.0000	 
  1.8000	   2.9600	  0.0000	 
  1.8000	   3.3400	  0.0000	 
  1.8000	   3.7200	  0.0000	 
  1.8000	   4.1000	  0.0000	 
  1.8000	   4.4800	  0.0000	 
  1.8000	   4.8600	  0.0000	 
  1.8000	   5.2400	  0.0000	 
  1.8000	   5.6200	  0.0000	 
  1.8000	   6.0000	  0.0000	 
  1.8000	   6.3800	  0.0000	 
  1.8000	   6.7600	  0.0000	 
  1.8000	   7.1400	  0.0000	 
  1.8000	   7.5200	  0.0000	 
  1.8000	   7.9000	  0.0000	 
  1.8000	   8.2800	  0.0000	 
  1.8000	   8.6600	  0.0000	 
  1.8000	   9.0400	  0.0000	 
  1.8000	   9.4200	  0.0000	 
  2.0250	   2.8275	  0.0000	 
  2.0250	   3.1800	  0.0000	 
  2.0250	   3.5325	  0.0000	 
  2.0250	   3.8850	  0.0000	 
  2.0250	   4.2375	  0.0000	 
  2.0250	   4.5900	  0.0000	 
  2.0250	   4.9425	  0.0000	 
  2.0250	   5.2950	  0.0000	 
  2.0250	   5.6475	  0.0000	 
  2.0250	   6.0000	  0.0000	 
  2.0250	   6.3525	  0.0000	 
  2.0250	   6.7050	  0.0000	 
  2.0250	   7.0575	  0.0000	 
  2.0250	   7.4100	  0.0000	 
  2.0250	   7.7625	  0.0000	 
  2.0250	   8.1150	  0.0000	 
  2.0250	   8.4675	  0.0000	 
  2.0250	   8.8200	  0.0000	 
  2.0250	   9.1725	  0.0000	 
  2.2500	   3.0750	  0.0000	 
  2.2500	   3.4000	  0.0000	 
  2.2500	   3.7250	  0.0000	 
  2.2500	   4.0500	  0.0000	 
  2.2500	   4.3750	  0.0000	 
  2.2500	   4.7000	  0.0000	 
  2.2500	   5.0250	  0.0000	 
  2.2500	   5.3500	  0.0000	 
  2.2500	   5.6750	  0.0000	 
  2.2500	   6.0000	  0.0000	 
  2.2500	   6.3250	  0.0000	 
  2.2500	   6.6500	  0.0000	 
  2.2500	   6.9750	  0.0000	 
  2.2500	   7.3000	  0.0000	 
  2.2500	   7.6250	  0.0000	 
  2.2500	   7.9500	  0.0000	 
  2.2500	   8.2750	  0.0000	 
  2.2500	   8.6000	  0.0000	 
  2.2500	   8.9250	  0.0000	 
  2.4750	   3.3225	  0.0000	 
  2.4750	   3.6200	  0.0000	 
  2.4750	   3.9175	  0.0000	 
  2.4750	   4.2150	  0.0000	 
  2.4750	   4.5125	  0.0000	 
  2.4750	   4.8100	  0.0000	 
  2.4750	   5.1075	  0.0000	 
  2.4750	   5.4050	  0.0000	 
  2.4750	   5.7025	  0.0000	 
  2.4750	   6.0000	  0.0000	 
  2.4750	   6.2975	  0.0000	 
  2.4750	   6.5950	  0.0000	 
  2.4750	   6.8925	  0.0000	 
  2.4750	   7.1900	  0.0000	 
  2.4750	   7.4875	  0.0000	 
  2.4750	   7.7850	  0.0000	 
  2.4750	   8.0825	  0.0000	 
  2.4750	   8.3800	  0.0000	 
  2.4750	   8.6775	  0.0000	 
  2.7000	   3.5700	  0.0000	 
  2.7000	   3.8400	  0.0000	 
  2.7000	   4.1100	  0.0000	 
  2.7000	   4.3800	  0.0000	 
  2.7000	   4.6500	  0.0000	 
  2.7000	   4.9200	  0.0000	 
  2.7000	   5.1900	  0.0000	 
  2.7000	   5.4600	  0.0000	 
  2.7000	   5.7300	  0.0000	 
  2.7000	   6.0000	  0.0000	 
  2.7000	   6.2700	  0.0000	 
  2.7000	   6.5400	  0.0000	 
  2.7000	   6.8100	  0.0000	 
  2.7000	   7.0800	  0.0000	 
  2.7000	   7.3500	  0.0000	 
  2.7000	   7.6200	  0.0000	 
  2.7000	   7.8900	  0.0000	 
  2.7000	   8.1600	  0.0000	 
  2.7000	   8.4300	  0.0000	 
  2.9250	   3.8175	  0.0000	 
  2.9250	   4.0600	  0.0000	 
  2.9250	   4.3025	  0.0000	 
  2.9250	   4.5450	  0.0000	 
  2.9250	   4.7875	  0.0000	 
  2.9250	   5.0300	  0.0000	 
  2.9250	   5.2725	  0.0000	 
  2.9250	   5.5150	  0.0000	 
  2.9250	   5.7575	  0.0000	 
  2.9250	   6.0000	  0.0000	 
  2.9250	   6.2425	  0.0000	 
  2.9250	   6.4850	  0.0000	 
  2.9250	   6.7275	  0.0000	 
  2.9250	   6.9700	  0.0000	 
  2.9250	   7.2125	  0.0000	 
  2.9250	   7.4550	  0.0000	 
  2.9250	   7.6975	  0.0000	 
  2.9250	   7.9400	  0.0000	 
  2.9250	   8.1825	  0.0000	 
  3.1500	   4.0650	  0.0000	 
  3.1500	   4.2800	  0.0000	 
  3.1500	   4.4950	  0.0000	 
  3.1500	   4.7100	  0.0000	 
  3.1500	   4.9250	  0.0000	 
  3.1500	   5.1400	  0.0000	 
  3.1500	   5.3550	  0.0000	 
  3.1500	   5.5700	  0.0000	 
  3.1500	   5.7850	  0.0000	 
  3.1500	   6.0000	  0.0000	 
  3.1500	   6.2150	  0.0000	 
  3.1500	   6.4300	  0.0000	 
  3.1500	   6.6450	  0.0000	 
  3.1500	   6.8600	  0.0000	 
  3.1500	   7.0750	  0.0000	 
  3.1500	   7.2900	  0.0000	 
  3.1500	   7.5050	  0.0000	 
  3.1500	   7.7200	  0.0000	 
  3.1500	   7.9350	  0.0000	 
  3.3750	   4.3125	  0.0000	 
  3.3750	   4.5000	  0.0000	 
  3.3750	   4.6875	  0.0000	 
  3.3750	   4.8750	  0.0000	 
  3.3750	   5.0625	  0.0000	 
  3.3750	   5.2500	  0.0000	 
  3.3750	   5.4375	  0.0000	 
  3.3750	   5.6250	  0.0000	 
  3.3750	   5.8125	  0.0000	 
  3.3750	   6.0000	  0.0000	 
  3.3750	   6.1875	  0.0000	 
  3.3750	   6.3750	  0.0000	 
  3.3750	   6.5625	  0.0000	 
  3.3750	   6.7500	  0.0000	 
  3.3750	   6.9375	  0.0000	 
  3.3750	   7.1250	  0.0000	 
  3.3750	   7.3125	  0.0000	 
  3.3750	   7.5000	  0.0000	 
  3.3750	   7.6875	  0.0000	 
  3.6000	   4.5600	  0.0000	 
  3.6000	   4.7200	  0.0000	 
  3.6000	   4.8800	  0.0000	 
  3.6000	   5.0400	  0.0000	 
  3.6000	   5.2000	  0.0000	 
  3.6000	   5.3600	  0.0000	 
  3.6000	   5.5200	  0.0000	 
  3.6000	   5.6800	  0.0000	 
  3.6000	   5.8400	  0.0000	 
  3.6000	   6.0000	  0.0000	 
  3.6000	   6.1600	  0.0000	 
  3.6000	   6.3200	  0.0000	 
  3.6000	   6.4800	  0.0000	 
  3.6000	   6.6400	  0.0000	 
  3.6000	   6.8000	  0.0000	 
  3.6000	   6.9600	  0.0000	 
  3.6000	   7.1200	  0.0000	 
  3.6000	   7.2800	  0.0000	 
  3.6000	   7.4400	  0.0000	 
  3.8250	   4.8075	  0.0000	 
  3.8250	   4.9400	  0.0000	 
  3.8250	   5.0725	  0.0000	 
  3.8250	   5.2050	  0.0000	 
  3.8250	   5.3375	  0.0000	 
  3.8250	   5.4700	  0.0000	 
  3.8250	   5.6025	  0.0000	 
[...]
POINT_DATA 	    1451 
VECTORS U float 
 50.0000	   0.0000	   0.0000	
 50.0000	   0.0000	   0.0000	
 50.0000	   0.0000	   0.0000	
 50.0000	   0.0000	   0.0000	
 50.0000	  -0.0000	   0.0000	
 50.0000	  -0.0000	   0.0000	
 50.0000	   0.0000	   0.0000	
 50.0000	  -0.0000	   0.0000	
 50.0000	  -0.0000	   0.0000	
 50.0000	   0.0000	   0.0000	
 50.0000	  -0.0000	   0.0000	
 50.0000	  -0.0000	   0.0000	
 50.0000	   0.0000	   0.0000	
 50.0000	   0.0000	   0.0000	
 50.0000	  -0.0000	   0.0000	
 50.0000	  -0.0000	   0.0000	
 50.0000	   0.0000	   0.0000	
 50.0000	   0.0000	   0.0000	
 50.0000	  -0.0000	   0.0000	
 48.1632	  11.5328	   0.0000	
 51.6106	  13.1913	   0.0000	
 49.4527	  20.1248	   0.0000	
 50.4477	  20.1362	   0.0000	
 50.4413	  16.7430	   0.0000	
 49.1287	  32.9941	   0.0000	
 48.7384	  42.7821	   0.0000	
 49.7415	  49.0320	   0.0000	
 49.4889	  52.7838	   0.0000	
 49.1600	  55.8682	   0.0000	
 50.4493	  57.0887	   0.0000	
 50.3693	  53.6205	   0.0000	
 50.6970	  48.3162	   0.0000	
 51.9938	  38.1965	   0.0000	
 49.6150	  33.7775	   0.0000	
 50.4433	  25.0870	   0.0000	
 50.2667	  27.2439	   0.0000	
 49.0038	  25.8343	   0.0000	
 51.1048	  23.5729	   0.0000	
 48.3985	  18.5740	   0.0000	
 43.8374	  32.3488	   0.0000	
 49.5962	  41.6973	   0.0000	
 51.7534	  33.2199	   0.0000	
 38.7042	  53.6237	   0.0000	
 42.3226	  53.1424	   0.0000	
 44.1396	  67.1183	   0.0000	
 46.8513	  75.2597	   0.0000	
 48.7011	  77.1440	   0.0000	
 48.4667	  78.2763	   0.0000	
 49.6221	  80.4885	   0.0000	
 52.1998	  83.7001	   0.0000	
 54.7227	  80.3745	   0.0000	
 58.8649	  67.7263	   0.0000	
 50.0387	  63.9850	   0.0000	
 57.4966	  61.9447	   0.0000	
 47.2726	  47.9868	   0.0000	
 51.5960	  50.2620	   0.0000	
 51.9529	  49.4150	   0.0000	
 39.1346	  32.3592	   0.0000	
 39.7431	  55.7664	   0.0000	
 58.9234	  45.6321	   0.0000	
 39.5548	  65.1223	   0.0000	
 45.8649	  57.2406	   0.0000	
 38.0825	  62.0021	   0.0000	
 42.9009	  64.5168	   0.0000	
 47.0797	  62.9916	   0.0000	
 47.2334	  66.6418	   0.0000	
 47.2173	  69.3571	   0.0000	
 49.4560	  72.5115	   0.0000	
 49.6266	  72.1284	   0.0000	
 53.1495	  80.1806	   0.0000	
 62.0562	  83.0527	   0.0000	
 52.7717	  81.2384	   0.0000	
 53.5089	  82.6265	   0.0000	
 58.8116	  81.2002	   0.0000	
 49.6830	  68.1619	   0.0000	
 49.2673	  68.6851	   0.0000	
 22.9718	  53.9189	   0.0000	
 55.5065	  50.3183	   0.0000	
 40.3456	  72.1705	   0.0000	
 43.4396	  64.3034	   0.0000	
 42.0029	  67.0526	   0.0000	
 37.8131	  64.0166	   0.0000	
 43.4695	  66.2871	   0.0000	
 45.9863	  69.4890	   0.0000	
 46.5223	  71.1568	   0.0000	
 46.6263	  72.9986	   0.0000	
 47.4874	  73.9104	   0.0000	
 49.5732	  77.9107	   0.0000	
 49.8000	  77.5600	   0.0000	
 59.2106	  80.1180	   0.0000	
 55.8912	  88.8963	   0.0000	
 50.1094	  89.2609	   0.0000	
 59.5032	  94.9561	   0.0000	
 56.5088	  93.3788	   0.0000	
 50.6358	  80.3345	   0.0000	
 43.8200	  51.1258	   0.0000	
 39.2768	  70.0228	   0.0000	
 45.1242	  69.5592	   0.0000	
 43.3521	  69.7860	   0.0000	
 42.3771	  66.6994	   0.0000	
 38.7341	  63.1316	   0.0000	
 42.2081	  65.9830	   0.0000	
 45.2574	  67.6624	   0.0000	
 44.9294	  70.6475	   0.0000	
 45.5006	  72.9637	   0.0000	
 47.8124	  75.0223	   0.0000	
 47.3971	  74.4296	   0.0000	
 49.8872	  79.1503	   0.0000	
 56.0146	  76.8388	   0.0000	
 52.5509	  83.7343	   0.0000	
 49.7991	  93.9792	   0.0000	
 52.7727	  93.5723	   0.0000	
 59.3086	 101.6897	   0.0000	
 61.0961	 102.6886	   0.0000	
 40.7665	  66.3104	   0.0000	
 38.7085	  65.0217	   0.0000	
 44.9686	  68.3078	   0.0000	
 44.7807	  65.1947	   0.0000	
 42.2108	  65.7894	   0.0000	
 38.4224	  64.8172	   0.0000	
 42.4443	  66.3237	   0.0000	
 43.9430	  68.7134	   0.0000	
 44.1789	  71.1430	   0.0000	
 44.4533	  72.8337	   0.0000	
 46.2523	  75.6186	   0.0000	
 47.7471	  77.6438	   0.0000	
 46.5420	  78.0949	   0.0000	
 55.5684	  81.5855	   0.0000	
 51.3493	  84.0309	   0.0000	
 45.8220	  87.7445	   0.0000	
 50.9010	  92.1681	   0.0000	
 52.1591	  95.4073	   0.0000	
 54.9098	 107.6408	   0.0000	
 42.4188	  61.3518	   0.0000	
 40.3465	  57.5574	   0.0000	
 46.1214	  61.6015	   0.0000	
 42.8743	  62.8937	   0.0000	
 41.0068	  65.5945	   0.0000	
 38.6277	  64.0879	   0.0000	
 40.9719	  67.3760	   0.0000	
 42.7832	  70.1152	   0.0000	
 42.6272	  72.5485	   0.0000	
 43.6792	  74.3642	   0.0000	
 45.2503	  75.3099	   0.0000	
 46.2791	  77.4018	   0.0000	
 46.9205	  79.4744	   0.0000	
 51.2241	  77.1985	   0.0000	
 51.7177	  84.9339	   0.0000	
 47.0106	  84.8582	   0.0000	
 46.1138	  82.7717	   0.0000	
 50.7747	  86.8364	   0.0000	
 46.1587	  91.6003	   0.0000	
 42.3851	  61.1609	   0.0000	
 40.8866	  58.9359	   0.0000	
 43.9947	  64.6268	   0.0000	
 40.1034	  66.4556	   0.0000	
 41.1792	  66.8389	   0.0000	
 37.7607	  66.0996	   0.0000	
 40.0659	  68.6804	   0.0000	
 41.6634	  70.1291	   0.0000	
 41.8042	  72.2815	   0.0000	
 42.2820	  74.3052	   0.0000	
 44.5284	  77.0219	   0.0000	
 44.8779	  77.3815	   0.0000	
 45.5061	  80.5537	   0.0000	
 51.4333	  80.3883	   0.0000	
 47.3934	  82.0723	   0.0000	
 49.5519	  88.2361	   0.0000	
 47.9365	  84.7744	   0.0000	
 46.2046	  84.0386	   0.0000	
 46.9466	  91.0978	   0.0000	
 43.1482	  59.8147	   0.0000	
 38.9725	  59.4157	   0.0000	
 41.6578	  65.2175	   0.0000	
 40.4248	  63.4105	   0.0000	
 39.7734	  66.1422	   0.0000	
 37.0313	  66.6062	   0.0000	
 39.3669	  68.5149	   0.0000	
 40.2658	  71.3171	   0.0000	
 40.2135	  73.9371	   0.0000	
 41.2196	  75.7773	   0.0000	
 43.0979	  77.5056	   0.0000	
 44.7157	  79.4814	   0.0000	
 43.5977	  79.7392	   0.0000	
 49.5418	  80.6658	   0.0000	
 48.4819	  83.5258	   0.0000	
 44.7665	  83.1617	   0.0000	
 50.0039	  87.3976	   0.0000	
 47.7653	  86.4471	   0.0000	
 41.3431	  90.0839	   0.0000	
 40.7922	  60.4405	   0.0000	
 36.4553	  60.1470	   0.0000	
 42.5471	  63.5782	   0.0000	
 37.8347	  63.4815	   0.0000	
 38.2023	  66.7128	   0.0000	
 36.4934	  66.2463	   0.0000	
 37.6512	  69.5447	   0.0000	
 38.6150	  71.9895	   0.0000	
 39.0877	  74.1791	   0.0000	
 39.8260	  75.8435	   0.0000	
 41.9562	  77.7980	   0.0000	
 42.9424	  78.9047	   0.0000	
 43.9155	  81.4643	   0.0000	
 47.2854	  78.9607	   0.0000	
 47.2396	  82.6701	   0.0000	
 47.7817	  82.7020	   0.0000	
 43.5825	  81.7571	   0.0000	
 50.1931	  86.4349	   0.0000	
 44.0852	  87.0069	   0.0000	
 37.8119	  62.0687	   0.0000	
 38.4575	  60.3753	   0.0000	
 40.0761	  64.4659	   0.0000	
 35.4709	  64.6808	   0.0000	
 37.8174	  66.8881	   0.0000	
 34.4819	  68.2173	   0.0000	
 36.1166	  70.9430	   0.0000	
 37.1171	  73.1600	   0.0000	
 37.6980	  75.3218	   0.0000	
 38.1470	  77.6498	   0.0000	
 40.9960	  79.9101	   0.0000	
 41.9967	  80.5783	   0.0000	
 42.3216	  81.7497	   0.0000	
 47.8761	  81.5804	   0.0000	
 44.8663	  82.0443	   0.0000	
 47.8819	  83.3766	   0.0000	
 46.1026	  84.2336	   0.0000	
 42.4866	  85.0721	   0.0000	
 48.1732	  89.9875	   0.0000	
 39.8444	  61.0096	   0.0000	
 35.5508	  61.0595	   0.0000	
 37.9275	  65.8576	   0.0000	
 34.4739	  63.6378	   0.0000	
 35.3631	  67.4820	   0.0000	
 32.8732	  67.9677	   0.0000	
 34.7342	  70.6329	   0.0000	
 35.4013	  72.8648	   0.0000	
 35.8140	  75.7663	   0.0000	
 36.3987	  77.7420	   0.0000	
 38.8303	  80.1776	   0.0000	
 41.2429	  82.4018	   0.0000	
 41.8303	  83.0963	   0.0000	
 45.6573	  81.5795	   0.0000	
 46.0859	  84.5781	   0.0000	
 45.2576	  83.2943	   0.0000	
 45.2592	  87.7549	   0.0000	
 46.2080	  87.6215	   0.0000	
 38.7294	  88.0921	   0.0000	
 35.9312	  58.4185	   0.0000	
 32.0479	  59.8066	   0.0000	
 37.9399	  65.3926	   0.0000	
 30.9187	  65.5034	   0.0000	
 33.7077	  69.8041	   0.0000	
 31.4325	  70.3241	   0.0000	
 32.6910	  72.9865	   0.0000	
 32.6240	  76.6667	   0.0000	
 34.0160	  79.3284	   0.0000	
 35.2690	  80.4592	   0.0000	
 37.2120	  81.0716	   0.0000	
 38.2701	  82.6748	   0.0000	
 41.6382	  85.3707	   0.0000	
 45.6233	  83.3446	   0.0000	
 43.3280	  84.7828	   0.0000	
 47.0093	  84.9912	   0.0000	
 41.1003	  86.5968	   0.0000	
 47.6671	  84.4408	   0.0000	
 47.3734	  78.4842	   0.0000	
 30.8044	  59.1741	   0.0000	
 30.8493	  60.0115	   0.0000	
 32.2341	  65.8722	   0.0000	
 28.1551	  64.8570	   0.0000	
 31.9322	  68.9323	   0.0000	
 29.2926	  69.6262	   0.0000	
 28.9667	  73.5853	   0.0000	
 30.2292	  75.8803	   0.0000	
 32.8448	  77.6678	   0.0000	
 31.4725	  81.0268	   0.0000	
 37.6120	  84.5408	   0.0000	
 36.1554	  83.3680	   0.0000	
 38.7093	  84.7377	   0.0000	
 45.3238	  84.5650	   0.0000	
 43.0816	  86.5778	   0.0000	
 44.7771	  85.8809	   0.0000	
 44.2734	  88.9681	   0.0000	
 46.9838	  82.4846	   0.0000	
 52.7552	  76.2396	   0.0000	
 27.2498	  58.1697	   0.0000	
 25.8577	  64.1818	   0.0000	
 29.0666	  69.1033	   0.0000	
 27.2541	  69.6229	   0.0000	
 29.7721	  72.4783	   0.0000	
 25.2666	  72.8603	   0.0000	
 27.6544	  74.0215	   0.0000	
 29.3495	  74.5954	   0.0000	
 29.0031	  77.7942	   0.0000	
 27.4128	  81.3810	   0.0000	
 32.8601	  85.3699	   0.0000	
 37.8298	  88.6632	   0.0000	
 37.8499	  87.2102	   0.0000	
 39.5779	  88.0384	   0.0000	
 41.9579	  94.9004	   0.0000	
 43.4330	  95.7375	   0.0000	
 43.0058	  95.1090	   0.0000	
 54.7350	  86.5848	   0.0000	
 53.1670	  76.8441	   0.0000	
 20.9904	  56.5201	   0.0000	
 25.7167	  61.7687	   0.0000	
 17.7529	  67.8559	   0.0000	
 25.6630	  76.4990	   0.0000	
 26.0089	  80.6092	   0.0000	
 26.5537	  80.2687	   0.0000	
 28.1008	  79.9707	   0.0000	
 24.9949	  82.4326	   0.0000	
 24.1575	  86.4260	   0.0000	
 27.2689	  86.3997	   0.0000	
 26.9435	  86.2102	   0.0000	
 30.2385	  92.0453	   0.0000	
 39.8177	  96.6139	   0.0000	
 36.5721	  94.9528	   0.0000	
 29.3223	 101.9292	   0.0000	
 41.7459	 101.4415	   0.0000	
 52.3010	  92.7353	   0.0000	
 48.8495	  85.8811	   0.0000	
 63.5338	  73.7582	   0.0000	
 10.1314	  53.3499	   0.0000	
  7.9136	  59.7403	   0.0000	
 17.7590	  65.3546	   0.0000	
 19.1758	  70.7673	   0.0000	
 25.6944	  74.5846	   0.0000	
 29.3168	  73.6259	   0.0000	
 22.6710	  74.0852	   0.0000	
 18.8572	  76.5026	   0.0000	
 24.8788	  76.7298	   0.0000	
 19.3461	  80.7258	   0.0000	
 27.8643	  85.9190	   0.0000	
 17.9527	  86.6760	   0.0000	
 24.7357	  95.3516	   0.0000	
 43.1301	  98.2619	   0.0000	
 22.5639	 106.6479	   0.0000	
 33.1384	 111.3768	   0.0000	
 45.3017	 102.8110	   0.0000	
 63.3208	  95.9293	   0.0000	
 68.3792	  83.1493	   0.0000	
  3.0695	  56.0666	   0.0000	
  7.1175	  66.9223	   0.0000	
 11.8354	  74.2391	   0.0000	
 27.3479	  80.9037	   0.0000	
 32.7929	  83.5570	   0.0000	
 18.9866	  80.9180	   0.0000	
 15.3279	  86.6264	   0.0000	
 18.7567	  90.1202	   0.0000	
 16.6293	  95.6206	   0.0000	
 14.6705	  99.5436	   0.0000	
 15.1443	 101.7539	   0.0000	
 17.6885	 109.4609	   0.0000	
  4.8152	 114.0107	   0.0000	
 20.2071	 118.7781	   0.0000	
 17.1055	 132.5013	   0.0000	
  9.2965	 142.9526	   0.0000	
 28.5496	 136.1242	   0.0000	
 66.0286	 114.3708	   0.0000	
 74.1218	  88.7273	   0.0000	
 -3.7514	  40.9156	   0.0000	
  4.4802	  48.5520	   0.0000	
 16.8252	  56.1546	   0.0000	
 23.9700	  65.0424	   0.0000	
  2.7682	  71.3329	   0.0000	
  0.4022	  73.6565	   0.0000	
  9.3642	  78.1771	   0.0000	
 -0.4160	  82.0248	   0.0000	
  8.6742	  85.5772	   0.0000	
 -1.0212	  89.1353	   0.0000	
 11.1255	  93.1299	   0.0000	
 -3.4178	  96.7506	   0.0000	
  9.6242	  98.6139	   0.0000	
 -1.6215	 102.1934	   0.0000	
 -0.0695	 101.6588	   0.0000	
 -3.1899	 107.3868	   0.0000	
  1.1377	 106.0031	   0.0000	
 24.9784	 102.6192	   0.0000	
 63.9123	  91.1908	   0.0000	
 -0.0000	  -0.0000	   0.0000	
  0.0000	   0.0000	   0.0000	
 -0.0000	   0.0000	   0.0000	
 -0.0000	   0.0000	   0.0000	
  0.0000	  -0.0000	   0.0000	
 -0.0000	   0.0000	   0.0000	
  0.0000	   0.0000	   0.0000	
  0.0000	  -0.0000	   0.0000	
 -0.0000	  -0.0000	   0.0000	
  0.0000	   0.0000	   0.0000	
  0.0000	   0.0000	   0.0000	
  0.0000	  -0.0000	   0.0000	
 -0.0000	  -0.0000	   0.0000	
 -0.0000	   0.0000	   0.0000	
 -0.0000	  -0.0000	   0.0000	
 -0.0000	  -0.0000	   0.0000	
  0.0000	  -0.0000	   0.0000	
 -0.0000	  -0.0000	   0.0000	
  0.0000	   0.0000	   0.0000	
 50.0000	  50.0000	   0.0000	
 50.0000	  -0.0000	   0.0000	
 70.3754	  49.5880	   0.0000	
 49.7629	  17.4031	   0.0000	
 82.5516	  50.7554	   0.0000	
 53.8136	  35.6079	   0.0000	
 76.4968	  55.4860	   0.0000	
 64.2725	  55.3517	   0.0000	
 71.0557	  60.8529	   0.0000	
 64.4057	  71.1858	   0.0000	
 40.9481	  79.2619	   0.0000	
 55.8778	  81.3220	   0.0000	
 48.6716	  72.0108	   0.0000	
 72.9068	 100.5424	   0.0000	
 45.3450	  72.5381	   0.0000	
 64.1873	  91.0463	   0.0000	
 49.0207	  67.0867	   0.0000	
 52.7857	  81.8498	   0.0000	
 47.4746	  66.1187	   0.0000	
 55.9863	  81.2978	   0.0000	
 47.2184	  63.9293	   0.0000	
 51.0764	  76.4291	   0.0000	
 43.2017	  63.9279	   0.0000	
 54.0236	  76.1977	   0.0000	
 39.3764	  63.1535	   0.0000	
 60.5101	  76.7095	   0.0000	
 40.6820	  58.9502	   0.0000	
 47.9346	  68.3699	   0.0000	
 34.4761	  57.2976	   0.0000	
 55.7530	  69.0989	   0.0000	
 29.0405	  54.8773	   0.0000	
 60.2773	  67.3835	   0.0000	
 19.0591	  53.0959	   0.0000	
 65.9604	  65.3036	   0.0000	
 16.5951	  44.5443	   0.0000	
 75.3830	  61.9001	   0.0000	
 -7.8601	  43.8779	   0.0000	
 96.1114	  62.1792	   0.0000	
-15.7501	  31.1217	   0.0000	
121.7570	  60.7780	   0.0000	
 -0.0000	   0.0000	   0.0000	
 -0.0000	  -0.0000	   0.0000	
 51.0311	  50.0000	   0.0000	
 92.6528	 164.7079	   0.0000	
 45.6277	  49.9388	   0.0000	
 54.7600	 145.6409	   0.0000	
 43.8838	  50.2873	   0.0000	
 34.1172	 128.8389	   0.0000	
 40.9827	  49.5400	   0.0000	
 20.9795	 114.7351	   0.0000	
 43.7149	  47.8127	   0.0000	
 21.3994	 109.0278	   0.0000	
 45.4179	  46.5781	   0.0000	
 19.3809	 103.7103	   0.0000	
 43.2350	  46.8726	   0.0000	
 23.1493	 101.0831	   0.0000	
 43.8542	  46.5976	   0.0000	
 21.7093	  96.2637	   0.0000	
 43.1434	  45.9283	   0.0000	
 23.2896	  92.3095	   0.0000	
 41.0596	  45.9409	   0.0000	
 25.0816	  88.1881	   0.0000	
 39.5779	  45.3777	   0.0000	
 33.6456	  86.8442	   0.0000	
 45.0617	  42.4122	   0.0000	
 24.7098	  78.9496	   0.0000	
 40.4668	  42.7555	   0.0000	
 31.7465	  77.0270	   0.0000	
 41.0766	  40.1472	   0.0000	
 33.6760	  72.4728	   0.0000	
 39.9752	  36.0693	   0.0000	
 35.2002	  66.4559	   0.0000	
 41.2949	  31.1955	   0.0000	
 38.6922	  58.0061	   0.0000	
 32.5532	  28.4048	   0.0000	
 49.3448	  50.9731	   0.0000	
 19.2509	  23.3727	   0.0000	
 69.5887	  43.2373	   0.0000	
 42.4325	   2.9989	   0.0000	
 61.1047	  22.4998	   0.0000	
 29.5593	   0.0911	   0.0000	
 -4.3581	  -2.1399	   0.0000	
 -0.0000	   0.0000	   0.0000	
 -0.0000	  -0.0000	   0.0000	
 49.5771	  50.0000	   0.0000	
-47.1054	  64.1846	   0.0000	
 50.4073	  50.3262	   0.0000	
-13.9159	  66.1869	   0.0000	
 46.2118	  50.7099	   0.0000	
  0.8639	  66.2028	   0.0000	
 43.8296	  52.2970	   0.0000	
  7.8475	  66.1094	   0.0000	
 45.2274	  52.3853	   0.0000	
  9.8072	  64.8580	   0.0000	
 44.2192	  53.1239	   0.0000	
  9.3610	  63.7505	   0.0000	
 45.6125	  53.8496	   0.0000	
 10.7072	  62.7803	   0.0000	
 45.8020	  53.8160	   0.0000	
 12.2894	  61.3834	   0.0000	
 44.8280	  54.6762	   0.0000	
 15.4264	  60.2859	   0.0000	
 43.7409	  55.6771	   0.0000	
 18.4430	  59.4695	   0.0000	
 46.6061	  55.7869	   0.0000	
 15.0814	  58.0684	   0.0000	
 47.9849	  56.6626	   0.0000	
 16.8492	  56.3695	   0.0000	
 53.3032	  57.1179	   0.0000	
 16.7995	  54.2928	   0.0000	
 54.8789	  58.4442	   0.0000	
  7.7966	  51.6845	   0.0000	
 57.3061	  59.6276	   0.0000	
  9.8876	  50.0797	   0.0000	
 64.0038	  58.6894	   0.0000	
  7.6385	  45.3643	   0.0000	
 63.9976	  58.6227	   0.0000	
 15.6194	  41.2407	   0.0000	
 74.3368	  60.7676	   0.0000	
 20.0073	  37.8205	   0.0000	
 71.9370	  60.6101	   0.0000	
 -3.1585	  38.7799	   0.0000	
 45.9247	  61.0814	   0.0000	
 -1.7171	  44.5746	   0.0000	
 27.0775	  59.9440	   0.0000	
  2.8870	  47.9245	   0.0000	
 45.6895	  50.0000	   0.0000	
 10.0670	  53.0825	   0.0000	
 41.3654	  50.0403	   0.0000	
 -2.3230	  58.1390	   0.0000	
 40.5299	  50.3605	   0.0000	
  3.0231	  58.6424	   0.0000	
 38.2469	  49.9520	   0.0000	
  5.2966	  58.4182	   0.0000	
 39.1985	  50.4236	   0.0000	
  6.7043	  58.4437	   0.0000	
 40.5523	  50.9188	   0.0000	
  6.3373	  58.8658	   0.0000	
 39.0474	  50.8083	   0.0000	
 10.7571	  57.9694	   0.0000	
 39.7799	  51.5929	   0.0000	
  9.2664	  59.1702	   0.0000	
 40.4559	  52.1714	   0.0000	
 11.5508	  58.5832	   0.0000	
 38.0579	  52.2758	   0.0000	
 13.0386	  58.2944	   0.0000	
 42.4792	  53.2814	   0.0000	
 13.9721	  58.5013	   0.0000	
 38.9209	  53.2915	   0.0000	
 15.3936	  57.8416	   0.0000	
 38.7854	  54.8492	   0.0000	
 12.7155	  59.3101	   0.0000	
 42.9126	  57.4170	   0.0000	
 14.2460	  60.4721	   0.0000	
 40.1662	  58.5023	   0.0000	
 14.6207	  60.7869	   0.0000	
 44.5651	  63.0252	   0.0000	
  8.6935	  64.3564	   0.0000	
 42.7006	  66.7840	   0.0000	
  9.4967	  65.5614	   0.0000	
 42.1226	  72.3882	   0.0000	
 13.0328	  66.4930	   0.0000	
 46.5923	  79.5135	   0.0000	
 22.1757	  64.0639	   0.0000	
 38.3920	  88.6192	   0.0000	
 19.4899	  72.4708	   0.0000	
 15.5234	  91.2191	   0.0000	
 23.9861	  76.2671	   0.0000	
 41.8138	  50.0000	   0.0000	
 -1.4677	  45.6743	   0.0000	
 42.4454	  50.0908	   0.0000	
  2.2257	  44.9684	   0.0000	
 42.0107	  50.6670	   0.0000	
  4.6316	  44.2159	   0.0000	
 40.6188	  50.1089	   0.0000	
  7.7218	  43.5065	   0.0000	
 42.0222	  50.7613	   0.0000	
  7.5504	  44.2500	   0.0000	
 41.5061	  50.1506	   0.0000	
  5.5799	  46.5270	   0.0000	
 41.3188	  50.0394	   0.0000	
  7.0671	  46.5693	   0.0000	
 40.7559	  49.7335	   0.0000	
  7.1794	  47.9660	   0.0000	
 40.3821	  49.7652	   0.0000	
  9.5469	  47.8858	   0.0000	
 38.9576	  49.1795	   0.0000	
 11.3210	  47.9074	   0.0000	
 39.6077	  49.8565	   0.0000	
  9.5418	  49.8499	   0.0000	
 38.6976	  49.6022	   0.0000	
 13.2975	  48.8615	   0.0000	
 39.6576	  50.7997	   0.0000	
 13.4474	  49.7336	   0.0000	
 37.1260	  49.7788	   0.0000	
 14.0453	  50.1405	   0.0000	
 38.1993	  51.0692	   0.0000	
 14.8399	  51.0633	   0.0000	
 37.0682	  51.3812	   0.0000	
 15.9805	  51.2994	   0.0000	
 35.0745	  51.8923	   0.0000	
 16.9156	  52.4834	   0.0000	
 37.4211	  55.2888	   0.0000	
 14.8430	  56.6501	   0.0000	
 31.3727	  54.5696	   0.0000	
 22.2477	  56.8749	   0.0000	
 35.1296	  59.3573	   0.0000	
 17.8607	  60.8623	   0.0000	
 11.3560	  57.1484	   0.0000	
 37.4724	  55.2937	   0.0000	
 49.1505	  50.0000	   0.0000	
  0.2725	  29.1720	   0.0000	
 46.8579	  49.3090	   0.0000	
  1.5880	  30.6606	   0.0000	
 44.3938	  48.5911	   0.0000	
  2.9258	  32.1024	   0.0000	
 43.8520	  48.3392	   0.0000	
  3.7401	  33.7743	   0.0000	
 45.6489	  48.9435	   0.0000	
  6.2650	  34.6742	   0.0000	
 45.3621	  48.5471	   0.0000	
  7.3508	  36.4186	   0.0000	
 41.7586	  45.8285	   0.0000	
  7.8051	  37.9805	   0.0000	
 41.3197	  45.9035	   0.0000	
  8.8316	  38.3741	   0.0000	
 40.9054	  46.6345	   0.0000	
 10.0061	  38.6487	   0.0000	
 39.4561	  47.0236	   0.0000	
 11.5905	  39.8647	   0.0000	
 38.7101	  47.3189	   0.0000	
 13.1726	  41.2085	   0.0000	
 37.6526	  47.9832	   0.0000	
 14.4649	  42.3612	   0.0000	
 36.3749	  48.1691	   0.0000	
 15.9248	  43.8909	   0.0000	
 36.3645	  49.6104	   0.0000	
 15.3871	  46.4510	   0.0000	
 35.3986	  49.6505	   0.0000	
 17.1411	  46.5895	   0.0000	
 33.2271	  50.5681	   0.0000	
 18.6108	  47.9449	   0.0000	
 33.0591	  51.2614	   0.0000	
 20.8782	  48.4788	   0.0000	
 32.9858	  52.7757	   0.0000	
 19.6139	  51.0852	   0.0000	
 29.9459	  52.3978	   0.0000	
 22.0852	  51.5741	   0.0000	
 29.7360	  53.4718	   0.0000	
 24.8813	  51.2209	   0.0000	
 25.5630	  53.2937	   0.0000	
 23.3215	  54.9099	   0.0000	
  0.0000	   0.0000	   0.0000	
  0.0000	   0.0000	   0.0000	
 -0.0000	   0.0000	   0.0000	
  0.0000	  -0.0000	   0.0000	
 -0.0000	   0.0000	   0.0000	
  0.0000	   0.0000	   0.0000	
 -0.0000	   0.0000	   0.0000	
 -0.0000	  -0.0000	   0.0000	
 -0.0000	  -0.0000	   0.0000	
 -0.0000	   0.0000	   0.0000	
 -0.0000	  -0.0000	   0.0000	
 -0.0000	  -0.0000	   0.0000	
 -0.0000	   0.0000	   0.0000	
 -0.0000	  -0.0000	   0.0000	