# vtk DataFile Version 3.0 
Results 
ASCII 
DATASET UNSTRUCTURED_GRID 
POINTS 	    1085 float 
  0.0000	   0.6667	  0.0000	 
  0.0000	   1.3333	  0.0000	 
  0.0000	   2.0000	  0.0000	 
  0.0000	   2.6667	  0.0000	 
  0.0000	   3.3333	  0.0000	 
  0.0000	   4.0000	  0.0000	 
  0.0000	   4.6667	  0.0000	 
  0.0000	   5.3333	  0.0000	 
  0.0000	   6.0000	  0.0000	 
  0.0000	   6.6667	  0.0000	 
  0.0000	   7.3333	  0.0000	 
  0.0000	   8.0000	  0.0000	 
  0.0000	   8.6667	  0.0000	 
  0.0000	   9.3333	  0.0000	 
  0.0000	  10.0000	  0.0000	 
  0.0000	  10.6667	  0.0000	 
  0.0000	  11.3333	  0.0000	 
  0.2500	   0.9383	  0.0000	 
  0.2500	   1.5710	  0.0000	 
  0.2500	   2.2037	  0.0000	 
  0.2500	   2.8364	  0.0000	 
  0.2500	   3.4691	  0.0000	 
  0.2500	   4.1019	  0.0000	 
  0.2500	   4.7346	  0.0000	 
  0.2500	   5.3673	  0.0000	 
  0.2500	   6.0000	  0.0000	 
  0.2500	   6.6327	  0.0000	 
  0.2500	   7.2654	  0.0000	 
  0.2500	   7.8981	  0.0000	 
  0.2500	   8.5309	  0.0000	 
  0.2500	   9.1636	  0.0000	 
  0.2500	   9.7963	  0.0000	 
  0.2500	  10.4290	  0.0000	 
  0.2500	  11.0617	  0.0000	 
  0.5000	   1.2099	  0.0000	 
  0.5000	   1.8086	  0.0000	 
  0.5000	   2.4074	  0.0000	 
  0.5000	   3.0062	  0.0000	 
  0.5000	   3.6049	  0.0000	 
  0.5000	   4.2037	  0.0000	 
  0.5000	   4.8025	  0.0000	 
  0.5000	   5.4012	  0.0000	 
  0.5000	   6.0000	  0.0000	 
  0.5000	   6.5988	  0.0000	 
  0.5000	   7.1975	  0.0000	 
  0.5000	   7.7963	  0.0000	 
  0.5000	   8.3951	  0.0000	 
  0.5000	   8.9938	  0.0000	 
  0.5000	   9.5926	  0.0000	 
  0.5000	  10.1914	  0.0000	 
  0.5000	  10.7901	  0.0000	 
  0.7500	   1.4815	  0.0000	 
  0.7500	   2.0463	  0.0000	 
  0.7500	   2.6111	  0.0000	 
  0.7500	   3.1759	  0.0000	 
  0.7500	   3.7407	  0.0000	 
  0.7500	   4.3056	  0.0000	 
  0.7500	   4.8704	  0.0000	 
  0.7500	   5.4352	  0.0000	 
  0.7500	   6.0000	  0.0000	 
  0.7500	   6.5648	  0.0000	 
  0.7500	   7.1296	  0.0000	 
  0.7500	   7.6944	  0.0000	 
  0.7500	   8.2593	  0.0000	 
  0.7500	   8.8241	  0.0000	 
  0.7500	   9.3889	  0.0000	 
  0.7500	   9.9537	  0.0000	 
  0.7500	  10.5185	  0.0000	 
  1.0000	   1.7531	  0.0000	 
  1.0000	   2.2840	  0.0000	 
  1.0000	   2.8148	  0.0000	 
  1.0000	   3.3457	  0.0000	 
  1.0000	   3.8765	  0.0000	 
  1.0000	   4.4074	  0.0000	 
  1.0000	   4.9383	  0.0000	 
  1.0000	   5.4691	  0.0000	 
  1.0000	   6.0000	  0.0000	 
  1.0000	   6.5309	  0.0000	 
  1.0000	   7.0617	  0.0000	 
  1.0000	   7.5926	  0.0000	 
  1.0000	   8.1235	  0.0000	 
  1.0000	   8.6543	  0.0000	 
  1.0000	   9.1852	  0.0000	 
  1.0000	   9.7160	  0.0000	 
  1.0000	  10.2469	  0.0000	 
  1.2500	   2.0247	  0.0000	 
  1.2500	   2.5216	  0.0000	 
  1.2500	   3.0185	  0.0000	 
  1.2500	   3.5154	  0.0000	 
  1.2500	   4.0123	  0.0000	 
  1.2500	   4.5093	  0.0000	 
  1.2500	   5.0062	  0.0000	 
  1.2500	   5.5031	  0.0000	 
  1.2500	   6.0000	  0.0000	 
  1.2500	   6.4969	  0.0000	 
  1.2500	   6.9938	  0.0000	 
  1.2500	   7.4907	  0.0000	 
  1.2500	   7.9877	  0.0000	 
  1.2500	   8.4846	  0.0000	 
  1.2500	   8.9815	  0.0000	 
  1.2500	   9.4784	  0.0000	 
  1.2500	   9.9753	  0.0000	 
  1.5000	   2.2963	  0.0000	 
  1.5000	   2.7593	  0.0000	 
  1.5000	   3.2222	  0.0000	 
  1.5000	   3.6852	  0.0000	 
  1.5000	   4.1481	  0.0000	 
  1.5000	   4.6111	  0.0000	 
  1.5000	   5.0741	  0.0000	 
  1.5000	   5.5370	  0.0000	 
  1.5000	   6.0000	  0.0000	 
  1.5000	   6.4630	  0.0000	 
  1.5000	   6.9259	  0.0000	 
  1.5000	   7.3889	  0.0000	 
  1.5000	   7.8519	  0.0000	 
  1.5000	   8.3148	  0.0000	 
  1.5000	   8.7778	  0.0000	 
  1.5000	   9.2407	  0.0000	 
  1.5000	   9.7037	  0.0000	 
  1.7500	   2.5679	  0.0000	 
  1.7500	   2.9969	  0.0000	 
  1.7500	   3.4259	  0.0000	 
  1.7500	   3.8549	  0.0000	 
  1.7500	   4.2840	  0.0000	 
  1.7500	   4.7130	  0.0000	 
  1.7500	   5.1420	  0.0000	 
  1.7500	   5.5710	  0.0000	 
  1.7500	   6.0000	  0.0000	 
  1.7500	   6.4290	  0.0000	 
  1.7500	   6.8580	  0.0000	 
  1.7500	   7.2870	  0.0000	 
  1.7500	   7.7160	  0.0000	 
  1.7500	   8.1451	  0.0000	 
  1.7500	   8.5741	  0.0000	 
  1.7500	   9.0031	  0.0000	 
  1.7500	   9.4321	  0.0000	 
  2.0000	   2.8395	  0.0000	 
  2.0000	   3.2346	  0.0000	 
  2.0000	   3.6296	  0.0000	 
  2.0000	   4.0247	  0.0000	 
  2.0000	   4.4198	  0.0000	 
  2.0000	   4.8148	  0.0000	 
  2.0000	   5.2099	  0.0000	 
  2.0000	   5.6049	  0.0000	 
  2.0000	   6.0000	  0.0000	 
  2.0000	   6.3951	  0.0000	 
  2.0000	   6.7901	  0.0000	 
  2.0000	   7.1852	  0.0000	 
  2.0000	   7.5802	  0.0000	 
  2.0000	   7.9753	  0.0000	 
  2.0000	   8.3704	  0.0000	 
  2.0000	   8.7654	  0.0000	 
  2.0000	   9.1605	  0.0000	 
  2.2500	   3.1111	  0.0000	 
  2.2500	   3.4722	  0.0000	 
  2.2500	   3.8333	  0.0000	 
  2.2500	   4.1944	  0.0000	 
  2.2500	   4.5556	  0.0000	 
  2.2500	   4.9167	  0.0000	 
  2.2500	   5.2778	  0.0000	 
  2.2500	   5.6389	  0.0000	 
  2.2500	   6.0000	  0.0000	 
  2.2500	   6.3611	  0.0000	 
  2.2500	   6.7222	  0.0000	 
  2.2500	   7.0833	  0.0000	 
  2.2500	   7.4444	  0.0000	 
  2.2500	   7.8056	  0.0000	 
  2.2500	   8.1667	  0.0000	 
  2.2500	   8.5278	  0.0000	 
  2.2500	   8.8889	  0.0000	 
  2.5000	   3.3827	  0.0000	 
  2.5000	   3.7099	  0.0000	 
  2.5000	   4.0370	  0.0000	 
  2.5000	   4.3642	  0.0000	 
  2.5000	   4.6914	  0.0000	 
  2.5000	   5.0185	  0.0000	 
  2.5000	   5.3457	  0.0000	 
  2.5000	   5.6728	  0.0000	 
  2.5000	   6.0000	  0.0000	 
  2.5000	   6.3272	  0.0000	 
  2.5000	   6.6543	  0.0000	 
  2.5000	   6.9815	  0.0000	 
  2.5000	   7.3086	  0.0000	 
  2.5000	   7.6358	  0.0000	 
  2.5000	   7.9630	  0.0000	 
  2.5000	   8.2901	  0.0000	 
  2.5000	   8.6173	  0.0000	 
  2.7500	   3.6543	  0.0000	 
  2.7500	   3.9475	  0.0000	 
  2.7500	   4.2407	  0.0000	 
  2.7500	   4.5340	  0.0000	 
  2.7500	   4.8272	  0.0000	 
  2.7500	   5.1204	  0.0000	 
  2.7500	   5.4136	  0.0000	 
  2.7500	   5.7068	  0.0000	 
  2.7500	   6.0000	  0.0000	 
  2.7500	   6.2932	  0.0000	 
  2.7500	   6.5864	  0.0000	 
  2.7500	   6.8796	  0.0000	 
  2.7500	   7.1728	  0.0000	 
  2.7500	   7.4660	  0.0000	 
  2.7500	   7.7593	  0.0000	 
  2.7500	   8.0525	  0.0000	 
  2.7500	   8.3457	  0.0000	 
  3.0000	   3.9259	  0.0000	 
  3.0000	   4.1852	  0.0000	 
  3.0000	   4.4444	  0.0000	 
  3.0000	   4.7037	  0.0000	 
  3.0000	   4.9630	  0.0000	 
  3.0000	   5.2222	  0.0000	 
  3.0000	   5.4815	  0.0000	 
  3.0000	   5.7407	  0.0000	 
  3.0000	   6.0000	  0.0000	 
  3.0000	   6.2593	  0.0000	 
  3.0000	   6.5185	  0.0000	 
  3.0000	   6.7778	  0.0000	 
  3.0000	   7.0370	  0.0000	 
  3.0000	   7.2963	  0.0000	 
  3.0000	   7.5556	  0.0000	 
  3.0000	   7.8148	  0.0000	 
  3.0000	   8.0741	  0.0000	 
  3.2500	   4.1975	  0.0000	 
  3.2500	   4.4228	  0.0000	 
  3.2500	   4.6481	  0.0000	 
  3.2500	   4.8735	  0.0000	 
  3.2500	   5.0988	  0.0000	 
  3.2500	   5.3241	  0.0000	 
  3.2500	   5.5494	  0.0000	 
  3.2500	   5.7747	  0.0000	 
  3.2500	   6.0000	  0.0000	 
  3.2500	   6.2253	  0.0000	 
  3.2500	   6.4506	  0.0000	 
  3.2500	   6.6759	  0.0000	 
  3.2500	   6.9012	  0.0000	 
  3.2500	   7.1265	  0.0000	 
  3.2500	   7.3519	  0.0000	 
  3.2500	   7.5772	  0.0000	 
  3.2500	   7.8025	  0.0000	 
  3.5000	   4.4691	  0.0000	 
  3.5000	   4.6605	  0.0000	 
  3.5000	   4.8519	  0.0000	 
  3.5000	   5.0432	  0.0000	 
  3.5000	   5.2346	  0.0000	 
  3.5000	   5.4259	  0.0000	 
  3.5000	   5.6173	  0.0000	 
  3.5000	   5.8086	  0.0000	 
  3.5000	   6.0000	  0.0000	 
  3.5000	   6.1914	  0.0000	 
  3.5000	   6.3827	  0.0000	 
  3.5000	   6.5741	  0.0000	 
  3.5000	   6.7654	  0.0000	 
  3.5000	   6.9568	  0.0000	 
  3.5000	   7.1481	  0.0000	 
  3.5000	   7.3395	  0.0000	 
  3.5000	   7.5309	  0.0000	 
  3.7500	   4.7407	  0.0000	 
  3.7500	   4.8981	  0.0000	 
  3.7500	   5.0556	  0.0000	 
  3.7500	   5.2130	  0.0000	 
  3.7500	   5.3704	  0.0000	 
  3.7500	   5.5278	  0.0000	 
  3.7500	   5.6852	  0.0000	 
  3.7500	   5.8426	  0.0000	 
  3.7500	   6.0000	  0.0000	 
  3.7500	   6.1574	  0.0000	 
  3.7500	   6.3148	  0.0000	 
  3.7500	   6.4722	  0.0000	 
  3.7500	   6.6296	  0.0000	 
  3.7500	   6.7870	  0.0000	 
  3.7500	   6.9444	  0.0000	 
  3.7500	   7.1019	  0.0000	 
  3.7500	   7.2593	  0.0000	 
  4.0000	   5.0123	  0.0000	 
  4.0000	   5.1358	  0.0000	 
  4.0000	   5.2593	  0.0000	 
  4.0000	   5.3827	  0.0000	 
  4.0000	   5.5062	  0.0000	 
  4.0000	   5.6296	  0.0000	 
  4.0000	   5.7531	  0.0000	 
  4.0000	   5.8765	  0.0000	 
  4.0000	   6.0000	  0.0000	 
  4.0000	   6.1235	  0.0000	 
  4.0000	   6.2469	  0.0000	 
  4.0000	   6.3704	  0.0000	 
  4.0000	   6.4938	  0.0000	 
  4.0000	   6.6173	  0.0000	 
  4.0000	   6.7407	  0.0000	 
  4.0000	   6.8642	  0.0000	 
  4.0000	   6.9877	  0.0000	 
  4.2500	   5.2840	  0.0000	 
  4.2500	   5.3735	  0.0000	 
  4.2500	   5.4630	  0.0000	 
  4.2500	   5.5525	  0.0000	 
  4.2500	   5.6420	  0.0000	 
  4.2500	   5.7315	  0.0000	 
  4.2500	   5.8210	  0.0000	 
  4.2500	   5.9105	  0.0000	 
  4.2500	   6.0000	  0.0000	 
  4.2500	   6.0895	  0.0000	 
  4.2500	   6.1790	  0.0000	 
  4.2500	   6.2685	  0.0000	 
  4.2500	   6.3580	  0.0000	 
  4.2500	   6.4475	  0.0000	 
  4.2500	   6.5370	  0.0000	 
  4.2500	   6.6265	  0.0000	 
  4.2500	   6.7160	  0.0000	 
  4.5000	   5.5556	  0.0000	 
  4.5000	   5.6111	  0.0000	 
  4.5000	   5.6667	  0.0000	 
  4.5000	   5.7222	  0.0000	 
  4.5000	   5.7778	  0.0000	 
  4.5000	   5.8333	  0.0000	 
  4.5000	   5.8889	  0.0000	 
  4.5000	   5.9444	  0.0000	 
  4.5000	   6.0000	  0.0000	 
  4.5000	   6.0556	  0.0000	 
  4.5000	   6.1111	  0.0000	 
  4.5000	   6.1667	  0.0000	 
  4.5000	   6.2222	  0.0000	 
  4.5000	   6.2778	  0.0000	 
  4.5000	   6.3333	  0.0000	 
  4.5000	   6.3889	  0.0000	 
  4.5000	   6.4444	  0.0000	 
  0.0000	   0.0000	  0.0000	 
  0.0000	  12.0000	  0.0000	 
  0.2500	   0.3056	  0.0000	 
  0.2500	  11.6944	  0.0000	 
  0.5000	   0.6111	  0.0000	 
  0.5000	  11.3889	  0.0000	 
  0.7500	   0.9167	  0.0000	 
[...]
POINT_DATA 	    1085 
VECTORS U float 
 51.3000	  -0.0000	   0.0000	
 51.3000	   0.0000	   0.0000	
 51.3000	  -0.0000	   0.0000	
 51.3000	   0.0000	   0.0000	
 51.3000	   0.0000	   0.0000	
 51.3000	   0.0000	   0.0000	
 51.3000	   0.0000	   0.0000	
 51.3000	  -0.0000	   0.0000	
 51.3000	   0.0000	   0.0000	
 51.3000	  -0.0000	   0.0000	
 51.3000	   0.0000	   0.0000	
 51.3000	  -0.0000	   0.0000	
 51.3000	  -0.0000	   0.0000	
 51.3000	   0.0000	   0.0000	
 51.3000	  -0.0000	   0.0000	
 51.3000	   0.0000	   0.0000	
 51.3000	  -0.0000	   0.0000	
 39.6549	  14.1038	   0.0000	
 53.6184	   1.6994	   0.0000	
 50.5433	  13.4720	   0.0000	
 51.2454	   0.6256	   0.0000	
 51.0918	   7.9362	   0.0000	
 51.1416	   8.7249	   0.0000	
 51.5171	   7.8571	   0.0000	
 51.2122	   7.8946	   0.0000	
 51.7209	   7.3034	   0.0000	
 51.3687	   5.6022	   0.0000	
 51.4220	   5.0500	   0.0000	
 51.5816	   4.2197	   0.0000	
 51.4766	   2.2597	   0.0000	
 51.3042	   1.4653	   0.0000	
 51.3438	   0.7798	   0.0000	
 51.2680	   0.9396	   0.0000	
 51.3987	   0.2841	   0.0000	
 53.9356	   0.9130	   0.0000	
 42.9134	  18.9370	   0.0000	
 61.2111	   2.0902	   0.0000	
 45.8318	  10.5464	   0.0000	
 50.8522	   5.5266	   0.0000	
 51.7216	   3.9527	   0.0000	
 51.5294	   3.8766	   0.0000	
 51.4478	   3.1536	   0.0000	
 51.5149	   3.6959	   0.0000	
 51.8963	   4.4205	   0.0000	
 51.5241	   3.6050	   0.0000	
 51.7597	   3.6945	   0.0000	
 52.2919	   3.3941	   0.0000	
 51.9784	   3.0711	   0.0000	
 51.7405	   1.9883	   0.0000	
 51.2516	   1.4318	   0.0000	
 51.7273	   0.9511	   0.0000	
 40.8735	  14.3014	   0.0000	
 61.1191	   1.3234	   0.0000	
 48.7414	   9.8768	   0.0000	
 52.4190	   2.6171	   0.0000	
 52.5243	  -1.1122	   0.0000	
 51.8804	  -2.8179	   0.0000	
 51.8706	  -3.5015	   0.0000	
 51.1418	  -2.9681	   0.0000	
 51.0710	  -2.0159	   0.0000	
 51.4415	  -0.6723	   0.0000	
 51.7125	   0.4820	   0.0000	
 51.4381	   0.9838	   0.0000	
 52.0608	   2.0376	   0.0000	
 51.7129	   3.0673	   0.0000	
 52.0310	   2.5530	   0.0000	
 51.7889	   2.3526	   0.0000	
 51.6076	   0.8981	   0.0000	
 53.2544	  -6.8938	   0.0000	
 55.8699	   3.5543	   0.0000	
 51.6504	  -0.4064	   0.0000	
 53.8873	  -3.6891	   0.0000	
 52.8224	  -3.6921	   0.0000	
 52.0309	  -4.3806	   0.0000	
 51.5603	  -3.3875	   0.0000	
 50.7366	  -2.9162	   0.0000	
 50.7786	  -2.1879	   0.0000	
 50.8438	  -1.5004	   0.0000	
 51.2410	  -0.4919	   0.0000	
 51.1614	   0.4111	   0.0000	
 51.4899	   0.9138	   0.0000	
 51.4160	   1.7687	   0.0000	
 52.3638	   2.0229	   0.0000	
 51.7215	   2.2812	   0.0000	
 52.5257	   0.9799	   0.0000	
 51.9924	  -9.5924	   0.0000	
 53.3536	  -6.4154	   0.0000	
 53.5345	  -8.3940	   0.0000	
 53.1775	  -6.0439	   0.0000	
 52.9635	  -6.0180	   0.0000	
 51.2430	  -5.2082	   0.0000	
 51.2068	  -3.7852	   0.0000	
 50.3015	  -3.2103	   0.0000	
 50.3677	  -2.2107	   0.0000	
 50.4545	  -1.3177	   0.0000	
 50.8201	  -0.6316	   0.0000	
 50.8064	   0.0702	   0.0000	
 51.1828	   0.4746	   0.0000	
 51.1909	   0.8685	   0.0000	
 52.0052	   0.4337	   0.0000	
 51.6009	   1.5153	   0.0000	
 53.0544	   0.3004	   0.0000	
 51.8333	 -10.6715	   0.0000	
 53.9552	 -11.5534	   0.0000	
 51.6188	  -8.9001	   0.0000	
 52.9297	  -7.1277	   0.0000	
 52.2101	  -6.0437	   0.0000	
 50.2695	  -5.4071	   0.0000	
 50.8991	  -4.0325	   0.0000	
 49.7112	  -3.4039	   0.0000	
 49.8756	  -2.2783	   0.0000	
 49.9478	  -1.3300	   0.0000	
 50.4649	  -0.5054	   0.0000	
 50.4658	   0.1375	   0.0000	
 50.9321	   0.5014	   0.0000	
 51.0529	   0.7374	   0.0000	
 52.1011	   0.1356	   0.0000	
 51.2049	   0.7619	   0.0000	
 53.0325	  -0.6005	   0.0000	
 54.6113	  -6.7209	   0.0000	
 51.2351	  -7.8714	   0.0000	
 51.4464	  -7.1558	   0.0000	
 52.2324	  -5.7921	   0.0000	
 51.6233	  -5.3780	   0.0000	
 49.4764	  -5.4553	   0.0000	
 50.5695	  -3.9545	   0.0000	
 49.0894	  -3.7711	   0.0000	
 49.2370	  -2.4327	   0.0000	
 49.3741	  -1.2449	   0.0000	
 49.9408	  -0.3977	   0.0000	
 50.0992	   0.5704	   0.0000	
 50.6158	   0.8779	   0.0000	
 50.9207	   1.2930	   0.0000	
 51.9416	   0.7129	   0.0000	
 51.3317	   1.7632	   0.0000	
 52.8773	  -0.4920	   0.0000	
 54.5132	  -2.8938	   0.0000	
 50.7935	  -8.7662	   0.0000	
 50.9837	  -6.9098	   0.0000	
 51.7079	  -5.5461	   0.0000	
 51.2742	  -5.2458	   0.0000	
 48.4757	  -5.3409	   0.0000	
 50.4186	  -3.8337	   0.0000	
 48.1600	  -3.1295	   0.0000	
 48.7356	  -1.9683	   0.0000	
 48.6407	  -1.1943	   0.0000	
 49.4559	  -0.2812	   0.0000	
 49.4713	   0.5105	   0.0000	
 50.4437	   0.8502	   0.0000	
 50.5242	   1.0309	   0.0000	
 51.8312	   0.7829	   0.0000	
 50.8974	   1.8581	   0.0000	
 53.4037	  -0.0390	   0.0000	
 57.7539	  -1.2857	   0.0000	
 49.4631	  -9.8277	   0.0000	
 50.3808	  -7.4199	   0.0000	
 51.3557	  -6.3803	   0.0000	
 50.9953	  -6.1883	   0.0000	
 47.5968	  -7.2581	   0.0000	
 49.7767	  -4.6712	   0.0000	
 47.3484	  -4.6344	   0.0000	
 47.5846	  -2.8098	   0.0000	
 48.0314	  -0.9608	   0.0000	
 48.7020	  -0.0993	   0.0000	
 48.9079	   1.3008	   0.0000	
 50.0206	   1.2352	   0.0000	
 50.3655	   1.8102	   0.0000	
 51.2667	   1.3732	   0.0000	
 50.8191	   2.6038	   0.0000	
 52.9791	   0.2892	   0.0000	
 58.3466	   0.1142	   0.0000	
 48.1180	  -8.7797	   0.0000	
 50.0570	  -6.7390	   0.0000	
 50.6668	  -5.2254	   0.0000	
 51.1559	  -4.5709	   0.0000	
 45.6686	  -5.3434	   0.0000	
 49.8769	  -2.9962	   0.0000	
 46.2635	  -3.0902	   0.0000	
 46.8399	  -1.7987	   0.0000	
 46.9064	  -0.9259	   0.0000	
 48.1062	  -0.0086	   0.0000	
 47.7810	   1.0709	   0.0000	
 49.9731	   1.0506	   0.0000	
 49.6324	   1.5256	   0.0000	
 51.0975	   1.6298	   0.0000	
 50.3299	   2.0842	   0.0000	
 53.0413	   0.0667	   0.0000	
 56.9590	  -0.9667	   0.0000	
 49.1197	  -9.3534	   0.0000	
 49.7632	 -10.3784	   0.0000	
 49.9451	  -9.8993	   0.0000	
 50.3120	  -7.5485	   0.0000	
 44.2675	 -10.2625	   0.0000	
 49.4615	  -6.2928	   0.0000	
 44.5950	  -5.0412	   0.0000	
 44.9321	  -2.8827	   0.0000	
 45.8289	  -0.2753	   0.0000	
 47.1021	   1.2251	   0.0000	
 46.8433	   3.0421	   0.0000	
 49.4500	   2.2561	   0.0000	
 49.1937	   3.6019	   0.0000	
 50.1749	   3.2363	   0.0000	
 51.0620	   2.9595	   0.0000	
 52.3032	   0.7184	   0.0000	
 53.9811	  -1.6654	   0.0000	
 51.7753	  -2.2842	   0.0000	
 50.4359	  -6.4431	   0.0000	
 47.1933	  -6.5581	   0.0000	
 51.8467	  -4.5058	   0.0000	
 41.1965	  -8.3016	   0.0000	
 47.2586	  -1.1235	   0.0000	
 43.6325	  -2.8849	   0.0000	
 44.4468	  -2.0182	   0.0000	
 43.8805	  -1.6893	   0.0000	
 45.2219	  -0.4812	   0.0000	
 44.8981	   2.7303	   0.0000	
 49.6994	   1.8024	   0.0000	
 47.7856	   3.3539	   0.0000	
 50.3758	   2.3824	   0.0000	
 51.0543	   0.5286	   0.0000	
 52.5199	   0.3785	   0.0000	
 47.9845	 -11.6614	   0.0000	
 55.7121	  -7.1849	   0.0000	
 49.1882	 -11.2761	   0.0000	
 46.9406	 -14.7439	   0.0000	
 52.1505	  -8.2606	   0.0000	
 34.3201	 -13.2942	   0.0000	
 49.3075	  -9.1962	   0.0000	
 42.0912	  -8.0210	   0.0000	
 38.4647	  -2.3129	   0.0000	
 43.0597	   3.1737	   0.0000	
 44.1303	   4.4154	   0.0000	
 41.0847	   6.2822	   0.0000	
 48.9870	   5.1425	   0.0000	
 47.1135	   8.4211	   0.0000	
 50.4636	   5.0676	   0.0000	
 52.9950	   2.5232	   0.0000	
 48.5409	   5.1630	   0.0000	
 56.3486	  -6.2367	   0.0000	
 50.5925	  -6.5185	   0.0000	
 52.3748	  -7.5983	   0.0000	
 38.8918	 -10.5002	   0.0000	
 51.5066	   1.4418	   0.0000	
 36.3238	 -15.6757	   0.0000	
 43.9296	  -4.0367	   0.0000	
 34.9803	   0.1541	   0.0000	
 40.6333	  -2.1785	   0.0000	
 36.3734	  -3.2589	   0.0000	
 41.4940	   1.0427	   0.0000	
 41.0460	   4.7022	   0.0000	
 46.9873	  -1.2427	   0.0000	
 41.8433	   6.3660	   0.0000	
 51.9305	   3.5208	   0.0000	
 52.1845	   2.5569	   0.0000	
 53.3741	   2.1723	   0.0000	
 51.8851	 -17.6814	   0.0000	
 53.8016	 -16.2750	   0.0000	
 44.3100	 -23.2708	   0.0000	
 26.0388	 -27.3666	   0.0000	
 70.5869	 -10.5225	   0.0000	
 18.7073	 -19.9817	   0.0000	
 35.1187	  -7.9895	   0.0000	
 39.9757	 -10.8871	   0.0000	
 27.7552	  -1.4121	   0.0000	
 37.6737	   6.2174	   0.0000	
 33.6555	   7.2260	   0.0000	
 33.9829	  12.6413	   0.0000	
 53.6297	   9.5921	   0.0000	
 32.3378	  19.5798	   0.0000	
 48.1462	  14.6862	   0.0000	
 53.0670	   8.5771	   0.0000	
 51.6512	  10.3744	   0.0000	
 61.1693	 -12.7801	   0.0000	
 44.2865	 -22.2608	   0.0000	
  3.3571	 -26.9996	   0.0000	
 67.0884	 -20.1159	   0.0000	
 36.4272	 -12.0373	   0.0000	
  9.1205	 -19.1409	   0.0000	
 42.4266	 -17.2593	   0.0000	
 17.8102	  -4.2156	   0.0000	
 24.9088	  -3.7010	   0.0000	
 22.8127	  -1.2421	   0.0000	
 31.2726	   7.4956	   0.0000	
 23.8217	  11.8537	   0.0000	
 39.2589	  11.0491	   0.0000	
 48.3648	  16.4388	   0.0000	
 18.9234	  22.0844	   0.0000	
 51.2875	  14.7531	   0.0000	
 62.1438	   7.2996	   0.0000	
 19.7016	 -58.1049	   0.0000	
 50.9770	 -46.0629	   0.0000	
 10.7537	 -42.8757	   0.0000	
 46.4340	 -37.3174	   0.0000	
-18.0587	 -31.3402	   0.0000	
 42.1587	 -22.3563	   0.0000	
-11.9848	 -15.9074	   0.0000	
 20.5978	 -10.1279	   0.0000	
  2.8244	  -2.4789	   0.0000	
 16.1167	   4.8886	   0.0000	
  4.7999	  10.9907	   0.0000	
 19.7969	  17.8124	   0.0000	
  5.4900	  24.3529	   0.0000	
 34.8286	  31.0936	   0.0000	
 26.6612	  37.5515	   0.0000	
 35.2149	  43.5828	   0.0000	
 26.0620	  50.5699	   0.0000	
 -0.0000	   0.0000	   0.0000	
  0.0000	   0.0000	   0.0000	
  0.0000	   0.0000	   0.0000	
 -0.0000	   0.0000	   0.0000	
 -0.0000	  -0.0000	   0.0000	
 -0.0000	   0.0000	   0.0000	
 -0.0000	   0.0000	   0.0000	
 -0.0000	  -0.0000	   0.0000	
  0.0000	   0.0000	   0.0000	
 -0.0000	   0.0000	   0.0000	
 -0.0000	  -0.0000	   0.0000	
 -0.0000	  -0.0000	   0.0000	
 -0.0000	  -0.0000	   0.0000	
  0.0000	   0.0000	   0.0000	
  0.0000	   0.0000	   0.0000	
  0.0000	   0.0000	   0.0000	
  0.0000	  -0.0000	   0.0000	
 51.3000	  -0.0000	   0.0000	
 51.3000	  -0.0000	   0.0000	
 38.1468	  -2.0145	   0.0000	
 51.3156	   0.3893	   0.0000	
  4.9261	   2.5341	   0.0000	
 51.2216	   0.7555	   0.0000	
 42.6611	 -16.0387	   0.0000	
 51.7218	   1.3040	   0.0000	
 21.3823	  -6.5978	   0.0000	
 51.3228	   1.4095	   0.0000	
 47.2071	 -22.6518	   0.0000	
 51.0793	   1.5288	   0.0000	
 44.2596	 -19.2488	   0.0000	
 51.3259	   1.7946	   0.0000	
 43.3291	 -16.9167	   0.0000	
 51.0783	   1.8372	   0.0000	
 44.1863	 -16.0972	   0.0000	
 50.8411	   2.0590	   0.0000	
 42.7703	 -14.1931	   0.0000	
 51.4381	   2.8915	   0.0000	
 45.4466	 -14.4539	   0.0000	
 50.5875	   2.9380	   0.0000	
 46.3504	 -14.4215	   0.0000	
 50.5087	   3.9219	   0.0000	
 45.3532	 -13.5416	   0.0000	
 48.7710	   4.2236	   0.0000	
 48.6626	 -15.4461	   0.0000	
 50.8234	   7.0700	   0.0000	
 43.8189	 -12.8197	   0.0000	
 45.1797	   6.0192	   0.0000	
 52.6585	 -19.2635	   0.0000	
 51.8852	  13.5207	   0.0000	
 47.5447	 -17.9721	   0.0000	
 45.0464	  15.0476	   0.0000	
 73.3211	 -27.8852	   0.0000	
 74.0277	  25.5503	   0.0000	
  0.0000	   0.0000	   0.0000	
 -0.0000	   0.0000	   0.0000	
 56.5800	  -0.0000	   0.0000	
 54.7475	  -0.0000	   0.0000	
 46.5965	   1.1593	   0.0000	
 54.0630	  -0.0401	   0.0000	
 49.9327	   0.8092	   0.0000	
 53.3882	  -0.1139	   0.0000	
 49.9545	   1.2417	   0.0000	
 53.4157	   0.0573	   0.0000	
 50.7929	   0.9659	   0.0000	
 53.7382	   0.3233	   0.0000	
 51.9028	   0.4346	   0.0000	
 53.8413	   0.5033	   0.0000	
 52.0002	   0.1600	   0.0000	
 53.6494	   0.5520	   0.0000	
 50.6412	   0.3917	   0.0000	
 54.1832	   0.8765	   0.0000	
 53.9028	  -1.1928	   0.0000	
 55.6437	   1.5876	   0.0000	
 54.1770	  -1.3109	   0.0000	
 55.7776	   2.0774	   0.0000	
 54.3359	  -1.6437	   0.0000	
 55.7698	   2.8967	   0.0000	
 56.9132	  -2.6016	   0.0000	
 58.0867	   3.6139	   0.0000	
 55.3170	  -2.5410	   0.0000	
 57.0672	   3.7231	   0.0000	
 58.3223	  -3.7384	   0.0000	
 56.3346	   3.1615	   0.0000	
 61.7825	  -4.1866	   0.0000	
 66.0647	   6.5152	   0.0000	
 63.3546	  -4.5089	   0.0000	
 56.8067	   3.7082	   0.0000	
 79.4726	  -8.4575	   0.0000	
 82.2633	  10.3661	   0.0000	
 35.3707	   0.8989	   0.0000	
 35.0724	   1.0234	   0.0000	
 -0.0000	   0.0000	   0.0000	
 -0.0000	  -0.0000	   0.0000	
 48.4907	  -0.0000	   0.0000	
 53.9124	   0.0000	   0.0000	
 50.1266	  -0.3354	   0.0000	
 53.4806	  -0.2260	   0.0000	
 50.9360	  -0.5066	   0.0000	
 53.4150	  -0.4267	   0.0000	
 51.5476	  -0.4570	   0.0000	
 53.7541	  -0.6598	   0.0000	
 52.3731	  -0.4346	   0.0000	
 53.7097	  -0.9451	   0.0000	
 51.7367	  -0.1730	   0.0000	
 53.9602	  -1.2429	   0.0000	
 51.5502	   0.2517	   0.0000	
 53.5624	  -1.8230	   0.0000	
 52.6822	   0.6022	   0.0000	
 54.5574	  -2.2944	   0.0000	
 53.7108	   1.1006	   0.0000	
 55.6439	  -2.9175	   0.0000	
 53.6390	   1.8616	   0.0000	
 54.9477	  -3.8811	   0.0000	
 55.5124	   2.9143	   0.0000	
 56.9850	  -4.7928	   0.0000	
 56.4326	   4.2009	   0.0000	
 57.3918	  -5.9488	   0.0000	
 54.5980	   6.0083	   0.0000	
 54.8191	  -7.6659	   0.0000	
 57.7110	   8.4238	   0.0000	
 62.3169	 -10.0073	   0.0000	
 58.3449	  11.2361	   0.0000	
 58.8173	 -12.4869	   0.0000	
 76.2058	  15.5385	   0.0000	
 75.1108	 -15.1950	   0.0000	
 60.6172	  16.7309	   0.0000	
 61.6672	 -15.6434	   0.0000	
 35.4469	  14.9947	   0.0000	
 36.8980	 -13.6573	   0.0000	
 17.6119	  11.0309	   0.0000	
 17.1083	  -9.5754	   0.0000	
 50.9100	   0.0000	   0.0000	
 51.6820	   0.0000	   0.0000	
 50.1870	  -0.2235	   0.0000	
 51.5892	  -0.1875	   0.0000	
 49.9789	  -0.1457	   0.0000	
 51.7819	  -0.3697	   0.0000	
 49.8206	  -0.0632	   0.0000	
 51.5881	  -0.4775	   0.0000	
 50.1492	   0.1753	   0.0000	
 51.8253	  -0.6965	   0.0000	
 49.8578	   0.3262	   0.0000	
 51.3987	  -0.7766	   0.0000	
 50.1535	   0.4412	   0.0000	
 51.6912	  -0.9916	   0.0000	
 50.1646	   0.5428	   0.0000	
 51.4930	  -1.1439	   0.0000	
 49.3950	   0.5681	   0.0000	
 50.9373	  -1.2892	   0.0000	
 50.6727	   0.9716	   0.0000	
 52.0346	  -1.7364	   0.0000	
 49.2836	   0.9884	   0.0000	
 50.8973	  -1.8579	   0.0000	
 48.3511	   1.3559	   0.0000	
 49.8269	  -2.4610	   0.0000	
 50.3863	   1.9559	   0.0000	
 51.4640	  -3.0232	   0.0000	
 47.6176	   2.1415	   0.0000	
 49.8298	  -3.2412	   0.0000	
 46.8740	   3.2097	   0.0000	
 49.4854	  -5.1397	   0.0000	
 48.5787	   4.7361	   0.0000	
 50.7195	  -7.1022	   0.0000	
 54.8624	  10.8812	   0.0000	
 56.7087	 -13.0238	   0.0000	
 46.6822	  10.9838	   0.0000	
 49.9809	 -13.9977	   0.0000	
 30.7284	   7.4178	   0.0000	
 31.4114	 -10.2999	   0.0000	
 49.3815	  -0.0000	   0.0000	
 50.2482	   0.0000	   0.0000	
 49.7604	   0.2064	   0.0000	
 50.4620	  -0.1679	   0.0000	
 49.8842	   0.3723	   0.0000	
 50.5174	  -0.3041	   0.0000	
 49.9069	   0.4952	   0.0000	
 50.5350	  -0.4307	   0.0000	
 49.8010	   0.5125	   0.0000	
 50.5970	  -0.5812	   0.0000	
 49.7896	   0.5106	   0.0000	
 50.6106	  -0.7489	   0.0000	
 49.6743	   0.4807	   0.0000	
 50.6976	  -0.9452	   0.0000	
 49.6279	   0.5150	   0.0000	
 50.4206	  -1.0222	   0.0000	
 49.9622	   0.6906	   0.0000	
 50.7177	  -1.2925	   0.0000	
 49.5515	   0.6575	   0.0000	
 50.3970	  -1.3644	   0.0000	
 49.6632	   0.7045	   0.0000	
 50.4826	  -1.5440	   0.0000	
 49.6025	   0.9159	   0.0000	
 50.3539	  -1.7910	   0.0000	
 48.9845	   0.6650	   0.0000	
 49.8400	  -1.7320	   0.0000	
 49.4751	   0.9234	   0.0000	
 50.2410	  -1.9304	   0.0000	
 48.7419	   0.8036	   0.0000	
 49.4751	  -1.9830	   0.0000	
 47.2213	   0.0987	   0.0000	
 48.0941	  -1.5819	   0.0000	
 48.1748	   0.2255	   0.0000	
 48.3256	  -1.6415	   0.0000	
 45.4254	  -0.2085	   0.0000	
 47.1395	  -2.3138	   0.0000	
 43.7771	   3.4121	   0.0000	
 43.7712	  -5.2942	   0.0000	
 49.5596	  -0.0000	   0.0000	
 49.9379	   0.0000	   0.0000	
 49.5393	  -0.0326	   0.0000	
 49.9623	  -0.0274	   0.0000	
 49.5659	  -0.0576	   0.0000	
 49.9876	  -0.0546	   0.0000	
 49.6139	  -0.0754	   0.0000	
 50.0017	  -0.0800	   0.0000	
 49.6009	  -0.1251	   0.0000	
 50.0549	  -0.1216	   0.0000	
 49.5185	  -0.1237	   0.0000	
 50.0198	  -0.1604	   0.0000	
 49.5451	  -0.0231	   0.0000	
 50.0267	  -0.2445	   0.0000	
 49.5273	   0.0591	   0.0000	
 50.0294	  -0.3346	   0.0000	
 49.5555	   0.1689	   0.0000	
 49.9760	  -0.4206	   0.0000	
 49.3469	   0.1029	   0.0000	
 49.8234	  -0.4818	   0.0000	
 49.4681	   0.2280	   0.0000	
 49.9899	  -0.7203	   0.0000	
 49.0971	   0.2003	   0.0000	
 49.6827	  -0.8116	   0.0000	
 49.2417	   0.4077	   0.0000	
 49.7814	  -1.0810	   0.0000	
 48.8397	   0.3384	   0.0000	
 49.3759	  -1.1226	   0.0000	
 48.6247	   0.4925	   0.0000	
 49.2065	  -1.3729	   0.0000	
 48.6827	   0.5868	   0.0000	
 49.0922	  -1.5420	   0.0000	
 48.0441	   0.3975	   0.0000	
 48.5640	  -1.5352	   0.0000	
 49.2774	   0.3423	   0.0000	
 49.0658	  -1.4544	   0.0000	
 45.1231	  -1.5048	   0.0000	
 45.8877	  -0.0460	   0.0000	
  0.0000	   0.0000	   0.0000	
  0.0000	   0.0000	   0.0000	
 -0.0000	   0.0000	   0.0000	
 -0.0000	  -0.0000	   0.0000	
 -0.0000	   0.0000	   0.0000	
 -0.0000	   0.0000	   0.0000	
  0.0000	  -0.0000	   0.0000	
  0.0000	  -0.0000	   0.0000	
  0.0000	  -0.0000	   0.0000	
  0.0000	  -0.0000	   0.0000	
  0.0000	  -0.0000	   0.0000	
 -0.0000	  -0.0000	   0.0000	
  0.0000	   0.0000	   0.0000	
  0.0000	  -0.0000	   0.0000	
  0.0000	  -0.0000	   0.0000	
  0.0000	   0.0000	   0.0000	
  0.0000	   0.0000	   0.0000	
  0.0000	   0.0000	   0.0000	
 22.4243	  10.9136	   0.0000	
 19.3416	  -9.2546	   0.0000	
 24.1570	   9.9629	   0.0000	
 24.3674	  -8.7100	   0.0000	
 20.6715	   8.7640	   0.0000	
 22.9131	  -7.4664	   0.0000	
 17.6034	   7.5257	   0.0000	
 19.4971	  -5.9536	   0.0000	
 14.9931	   6.1456	   0.0000	
 15.6055	  -4.3666	   0.0000	
 13.0517	   4.7873	   0.0000	
 13.6538	  -2.8427	   0.0000	
 11.5153	   3.4567	   0.0000	
 12.2049	  -1.3863	   0.0000	
  0.0000	   0.0000	   0.0000	
  0.0000	   0.0000	   0.0000	
 35.0507	   6.3539	   0.0000	
 30.8286	  -9.1370	   0.0000	
 35.8184	   5.4126	   0.0000	
 32.0917	  -8.0152	   0.0000	
 36.1409	   4.4232	   0.0000	
 34.7823	  -7.2388	   0.0000	
 36.5717	   3.3784	   0.0000	
 35.6063	  -6.4153	   0.0000	
 37.1156	   2.2573	   0.0000	
 36.4620	  -5.5235	   0.0000	
 37.3077	   1.0696	   0.0000	
 36.8507	  -4.5422	   0.0000	
 37.4772	  -0.1897	   0.0000	
 37.1763	  -3.5132	   0.0000	
  0.0000	   0.0000	   0.0000	
  0.0000	   0.0000	   0.0000	
 48.5975	   1.0935	   0.0000	
 47.0085	  -3.2202	   0.0000	
 49.9011	   0.7758	   0.0000	
 49.0263	  -2.7374	   0.0000	
 49.4270	   0.5181	   0.0000	
 49.1369	  -2.3792	   0.0000	
 49.1891	   0.2201	   0.0000	
 49.0587	  -1.9543	   0.0000	
 48.9877	  -0.0149	   0.0000	
 48.9531	  -1.6868	   0.0000	
 48.8089	  -0.2401	   0.0000	
 48.8038	  -1.3404	   0.0000	
 48.6481	  -0.4760	   0.0000	
 48.7325	  -1.1336	   0.0000	
  0.0000	   0.0000	   0.0000	
  0.0000	   0.0000	   0.0000	
 46.1560	  -1.6115	   0.0000	
 46.0199	   0.2537	   0.0000	
 47.8488	  -1.4857	   0.0000	
 48.4021	   0.1857	   0.0000	
 47.7823	  -1.3182	   0.0000	
 48.4910	   0.0525	   0.0000	
 47.6522	  -1.1724	   0.0000	
 48.0968	  -0.0704	   0.0000	
 47.9264	  -1.0508	   0.0000	
 48.1517	  -0.2236	   0.0000	
 47.6535	  -0.9037	   0.0000	
 47.8623	  -0.3549	   0.0000	
 48.0172	  -0.8144	   0.0000	
 48.0609	  -0.4600	   0.0000	
 -0.0000	  -0.0000	   0.0000	
  0.0000	  -0.0000	   0.0000	
 -0.0000	   0.0000	   0.0000	
 12.0713	   2.1591	   0.0000	
 11.5072	   1.1615	   0.0000	
 11.0488	   0.1743	   0.0000	
 37.9178	  -1.2931	   0.0000	
 37.6643	  -1.8364	   0.0000	
 37.3244	  -2.4681	   0.0000	
 48.3483	  -0.7504	   0.0000	
 48.7563	  -0.7512	   0.0000	
 49.0249	  -0.8459	   0.0000	
 47.7683	  -0.7518	   0.0000	
 47.5405	  -0.6790	   0.0000	
 47.9353	  -0.5445	   0.0000	
 48.1640	   0.4595	   0.0000	
 48.3010	  -1.4918	   0.0000	
 47.3259	   0.3031	   0.0000	
 47.6664	  -1.3790	   0.0000	
 46.7509	   0.0393	   0.0000	
 47.1564	  -1.1929	   0.0000	
 48.0585	  -0.4835	   0.0000	
 48.3256	  -0.7518	   0.0000	
 48.1401	  -0.5330	   0.0000	
 48.5368	  -0.7719	   0.0000	
 48.0934	  -0.5955	   0.0000	
 48.2170	  -0.8241	   0.0000	
 48.1532	  -0.6567	   0.0000	
 48.2718	  -0.7993	   0.0000	
 48.2903	  -0.7052	   0.0000	
 48.1717	  -0.7707	   0.0000	
 48.6674	   0.3214	   0.0000	
 48.8575	  -1.5170	   0.0000	
 48.9847	   0.3921	   0.0000	