# vtk DataFile Version 3.0 
Results 
ASCII 
DATASET UNSTRUCTURED_GRID 
POINTS 	    1451 float 
  0.0000	   0.6000	  0.0000	 
  0.0000	   1.2000	  0.0000	 
  0.0000	   1.8000	  0.0000	 
  0.0000	   2.4000	  0.0000	 
  0.0000	   3.0000	  0.0000	 
  0.0000	   3.6000	  0.0000	 
  0.0000	   4.2000	  0.0000	 
  0.0000	   4.8000	  0.0000	 
  0.0000	   5.4000	  0.0000	 
  0.0000	   6.0000	  0.0000	 
  0.0000	   6.6000	  0.0000	 
  0.0000	   7.2000	  0.0000	 
  0.0000	   7.8000	  0.0000	 
  0.0000	   8.4000	  0.0000	 
  0.0000	   9.0000	  0.0000	 
  0.0000	   9.6000	  0.0000	 
  0.0000	  10.2000	  0.0000	 
  0.0000	  10.8000	  0.0000	 
  0.0000	  11.4000	  0.0000	 
  0.2250	   0.8475	  0.0000	 
  0.2250	   1.4200	  0.0000	 
  0.2250	   1.9925	  0.0000	 
  0.2250	   2.5650	  0.0000	 
  0.2250	   3.1375	  0.0000	 
  0.2250	   3.7100	  0.0000	 
  0.2250	   4.2825	  0.0000	 
  0.2250	   4.8550	  0.0000	 
  0.2250	   5.4275	  0.0000	 
  0.2250	   6.0000	  0.0000	 
  0.2250	   6.5725	  0.0000	 
  0.2250	   7.1450	  0.0000	 
  0.2250	   7.7175	  0.0000	 
  0.2250	   8.2900	  0.0000	 
  0.2250	   8.8625	  0.0000	 
  0.2250	   9.4350	  0.0000	 
  0.2250	  10.0075	  0.0000	 
  0.2250	  10.5800	  0.0000	 
  0.2250	  11.1525	  0.0000	 
  0.4500	   1.0950	  0.0000	 
  0.4500	   1.6400	  0.0000	 
  0.4500	   2.1850	  0.0000	 
  0.4500	   2.7300	  0.0000	 
  0.4500	   3.2750	  0.0000	 
  0.4500	   3.8200	  0.0000	 
  0.4500	   4.3650	  0.0000	 
  0.4500	   4.9100	  0.0000	 
  0.4500	   5.4550	  0.0000	 
  0.4500	   6.0000	  0.0000	 
  0.4500	   6.5450	  0.0000	 
  0.4500	   7.0900	  0.0000	 
  0.4500	   7.6350	  0.0000	 
  0.4500	   8.1800	  0.0000	 
  0.4500	   8.7250	  0.0000	 
  0.4500	   9.2700	  0.0000	 
  0.4500	   9.8150	  0.0000	 
  0.4500	  10.3600	  0.0000	 
  0.4500	  10.9050	  0.0000	 
  0.6750	   1.3425	  0.0000	 
  0.6750	   1.8600	  0.0000	 
  0.6750	   2.3775	  0.0000	 
  0.6750	   2.8950	  0.0000	 
  0.6750	   3.4125	  0.0000	 
  0.6750	   3.9300	  0.0000	 
  0.6750	   4.4475	  0.0000	 
  0.6750	   4.9650	  0.0000	 
  0.6750	   5.4825	  0.0000	 
  0.6750	   6.0000	  0.0000	 
  0.6750	   6.5175	  0.0000	 
  0.6750	   7.0350	  0.0000	 
  0.6750	   7.5525	  0.0000	 
  0.6750	   8.0700	  0.0000	 
  0.6750	   8.5875	  0.0000	 
  0.6750	   9.1050	  0.0000	 
  0.6750	   9.6225	  0.0000	 
  0.6750	  10.1400	  0.0000	 
  0.6750	  10.6575	  0.0000	 
  0.9000	   1.5900	  0.0000	 
  0.9000	   2.0800	  0.0000	 
  0.9000	   2.5700	  0.0000	 
  0.9000	   3.0600	  0.0000	 
  0.9000	   3.5500	  0.0000	 
  0.9000	   4.0400	  0.0000	 
  0.9000	   4.5300	  0.0000	 
  0.9000	   5.0200	  0.0000	 
  0.9000	   5.5100	  0.0000	 
  0.9000	   6.0000	  0.0000	 
  0.9000	   6.4900	  0.0000	 
  0.9000	   6.9800	  0.0000	 
  0.9000	   7.4700	  0.0000	 
  0.9000	   7.9600	  0.0000	 
  0.9000	   8.4500	  0.0000	 
  0.9000	   8.9400	  0.0000	 
  0.9000	   9.4300	  0.0000	 
  0.9000	   9.9200	  0.0000	 
  0.9000	  10.4100	  0.0000	 
  1.1250	   1.8375	  0.0000	 
  1.1250	   2.3000	  0.0000	 
  1.1250	   2.7625	  0.0000	 
  1.1250	   3.2250	  0.0000	 
  1.1250	   3.6875	  0.0000	 
  1.1250	   4.1500	  0.0000	 
  1.1250	   4.6125	  0.0000	 
  1.1250	   5.0750	  0.0000	 
  1.1250	   5.5375	  0.0000	 
  1.1250	   6.0000	  0.0000	 
  1.1250	   6.4625	  0.0000	 
  1.1250	   6.9250	  0.0000	 
  1.1250	   7.3875	  0.0000	 
  1.1250	   7.8500	  0.0000	 
  1.1250	   8.3125	  0.0000	 
  1.1250	   8.7750	  0.0000	 
  1.1250	   9.2375	  0.0000	 
  1.1250	   9.7000	  0.0000	 
  1.1250	  10.1625	  0.0000	 
  1.3500	   2.0850	  0.0000	 
  1.3500	   2.5200	  0.0000	 
  1.3500	   2.9550	  0.0000	 
  1.3500	   3.3900	  0.0000	 
  1.3500	   3.8250	  0.0000	 
  1.3500	   4.2600	  0.0000	 
  1.3500	   4.6950	  0.0000	 
  1.3500	   5.1300	  0.0000	 
  1.3500	   5.5650	  0.0000	 
  1.3500	   6.0000	  0.0000	 
  1.3500	   6.4350	  0.0000	 
  1.3500	   6.8700	  0.0000	 
  1.3500	   7.3050	  0.0000	 
  1.3500	   7.7400	  0.0000	 
  1.3500	   8.1750	  0.0000	 
  1.3500	   8.6100	  0.0000	 
  1.3500	   9.0450	  0.0000	 
  1.3500	   9.4800	  0.0000	 
  1.3500	   9.9150	  0.0000	 
  1.5750	   2.3325	  0.0000	 
  1.5750	   2.7400	  0.0000	 
  1.5750	   3.1475	  0.0000	 
  1.5750	   3.5550	  0.0000	 
  1.5750	   3.9625	  0.0000	 
  1.5750	   4.3700	  0.0000	 
  1.5750	   4.7775	  0.0000	 
  1.5750	   5.1850	  0.0000	 
  1.5750	   5.5925	  0.0000	 
  1.5750	   6.0000	  0.0000	 
  1.5750	   6.4075	  0.0000	 
  1.5750	   6.8150	  0.0000	 
  1.5750	   7.2225	  0.0000	 
  1.5750	   7.6300	  0.0000	 
  1.5750	   8.0375	  0.0000	 
  1.5750	   8.4450	  0.0000	 
  1.5750	   8.8525	  0.0000	 
  1.5750	   9.2600	  0.0000	 
  1.5750	   9.6675	  0.0000	 
  1.8000	   2.5800	  0.0000	 
  1.8000	   2.9600	  0.0000	 
  1.8000	   3.3400	  0.0000	 
  1.8000	   3.7200	  0.0000	 
  1.8000	   4.1000	  0.0000	 
  1.8000	   4.4800	  0.0000	 
  1.8000	   4.8600	  0.0000	 
  1.8000	   5.2400	  0.0000	 
  1.8000	   5.6200	  0.0000	 
  1.8000	   6.0000	  0.0000	 
  1.8000	   6.3800	  0.0000	 
  1.8000	   6.7600	  0.0000	 
  1.8000	   7.1400	  0.0000	 
  1.8000	   7.5200	  0.0000	 
  1.8000	   7.9000	  0.0000	 
  1.8000	   8.2800	  0.0000	 
  1.8000	   8.6600	  0.0000	 
  1.8000	   9.0400	  0.0000	 
  1.8000	   9.4200	  0.0000	 
  2.0250	   2.8275	  0.0000	 
  2.0250	   3.1800	  0.0000	 
  2.0250	   3.5325	  0.0000	 
  2.0250	   3.8850	  0.0000	 
  2.0250	   4.2375	  0.0000	 
  2.0250	   4.5900	  0.0000	 
  2.0250	   4.9425	  0.0000	 
  2.0250	   5.2950	  0.0000	 
  2.0250	   5.6475	  0.0000	 
  2.0250	   6.0000	  0.0000	 
  2.0250	   6.3525	  0.0000	 
  2.0250	   6.7050	  0.0000	 
  2.0250	   7.0575	  0.0000	 
  2.0250	   7.4100	  0.0000	 
  2.0250	   7.7625	  0.0000	 
  2.0250	   8.1150	  0.0000	 
  2.0250	   8.4675	  0.0000	 
  2.0250	   8.8200	  0.0000	 
  2.0250	   9.1725	  0.0000	 
  2.2500	   3.0750	  0.0000	 
  2.2500	   3.4000	  0.0000	 
  2.2500	   3.7250	  0.0000	 
  2.2500	   4.0500	  0.0000	 
  2.2500	   4.3750	  0.0000	 
  2.2500	   4.7000	  0.0000	 
  2.2500	   5.0250	  0.0000	 
  2.2500	   5.3500	  0.0000	 
  2.2500	   5.6750	  0.0000	 
  2.2500	   6.0000	  0.0000	 
  2.2500	   6.3250	  0.0000	 
  2.2500	   6.6500	  0.0000	 
  2.2500	   6.9750	  0.0000	 
  2.2500	   7.3000	  0.0000	 
  2.2500	   7.6250	  0.0000	 
  2.2500	   7.9500	  0.0000	 
  2.2500	   8.2750	  0.0000	 
  2.2500	   8.6000	  0.0000	 
  2.2500	   8.9250	  0.0000	 
  2.4750	   3.3225	  0.0000	 
  2.4750	   3.6200	  0.0000	 
  2.4750	   3.9175	  0.0000	 
  2.4750	   4.2150	  0.0000	 
  2.4750	   4.5125	  0.0000	 
  2.4750	   4.8100	  0.0000	 
  2.4750	   5.1075	  0.0000	 
  2.4750	   5.4050	  0.0000	 
  2.4750	   5.7025	  0.0000	 
  2.4750	   6.0000	  0.0000	 
  2.4750	   6.2975	  0.0000	 
  2.4750	   6.5950	  0.0000	 
  2.4750	   6.8925	  0.0000	 
  2.4750	   7.1900	  0.0000	 
  2.4750	   7.4875	  0.0000	 
  2.4750	   7.7850	  0.0000	 
  2.4750	   8.0825	  0.0000	 
  2.4750	   8.3800	  0.0000	 
  2.4750	   8.6775	  0.0000	 
  2.7000	   3.5700	  0.0000	 
  2.7000	   3.8400	  0.0000	 
  2.7000	   4.1100	  0.0000	 
  2.7000	   4.3800	  0.0000	 
  2.7000	   4.6500	  0.0000	 
  2.7000	   4.9200	  0.0000	 
  2.7000	   5.1900	  0.0000	 
  2.7000	   5.4600	  0.0000	 
  2.7000	   5.7300	  0.0000	 
  2.7000	   6.0000	  0.0000	 
  2.7000	   6.2700	  0.0000	 
  2.7000	   6.5400	  0.0000	 
  2.7000	   6.8100	  0.0000	 
  2.7000	   7.0800	  0.0000	 
  2.7000	   7.3500	  0.0000	 
  2.7000	   7.6200	  0.0000	 
  2.7000	   7.8900	  0.0000	 
  2.7000	   8.1600	  0.0000	 
  2.7000	   8.4300	  0.0000	 
  2.9250	   3.8175	  0.0000	 
  2.9250	   4.0600	  0.0000	 
  2.9250	   4.3025	  0.0000	 
  2.9250	   4.5450	  0.0000	 
  2.9250	   4.7875	  0.0000	 
  2.9250	   5.0300	  0.0000	 
  2.9250	   5.2725	  0.0000	 
  2.9250	   5.5150	  0.0000	 
  2.9250	   5.7575	  0.0000	 
  2.9250	   6.0000	  0.0000	 
  2.9250	   6.2425	  0.0000	 
  2.9250	   6.4850	  0.0000	 
  2.9250	   6.7275	  0.0000	 
  2.9250	   6.9700	  0.0000	 
  2.9250	   7.2125	  0.0000	 
  2.9250	   7.4550	  0.0000	 
  2.9250	   7.6975	  0.0000	 
  2.9250	   7.9400	  0.0000	 
  2.9250	   8.1825	  0.0000	 
  3.1500	   4.0650	  0.0000	 
  3.1500	   4.2800	  0.0000	 
  3.1500	   4.4950	  0.0000	 
  3.1500	   4.7100	  0.0000	 
  3.1500	   4.9250	  0.0000	 
  3.1500	   5.1400	  0.0000	 
  3.1500	   5.3550	  0.0000	 
  3.1500	   5.5700	  0.0000	 
  3.1500	   5.7850	  0.0000	 
  3.1500	   6.0000	  0.0000	 
  3.1500	   6.2150	  0.0000	 
  3.1500	   6.4300	  0.0000	 
  3.1500	   6.6450	  0.0000	 
  3.1500	   6.8600	  0.0000	 
  3.1500	   7.0750	  0.0000	 
  3.1500	   7.2900	  0.0000	 
  3.1500	   7.5050	  0.0000	 
  3.1500	   7.7200	  0.0000	 
  3.1500	   7.9350	  0.0000	 
  3.3750	   4.3125	  0.0000	 
  3.3750	   4.5000	  0.0000	 
  3.3750	   4.6875	  0.0000	 
  3.3750	   4.8750	  0.0000	 
  3.3750	   5.0625	  0.0000	 
  3.3750	   5.2500	  0.0000	 
  3.3750	   5.4375	  0.0000	 
  3.3750	   5.6250	  0.0000	 
  3.3750	   5.8125	  0.0000	 
  3.3750	   6.0000	  0.0000	 
  3.3750	   6.1875	  0.0000	 
  3.3750	   6.3750	  0.0000	 
  3.3750	   6.5625	  0.0000	 
  3.3750	   6.7500	  0.0000	 
  3.3750	   6.9375	  0.0000	 
  3.3750	   7.1250	  0.0000	 
  3.3750	   7.3125	  0.0000	 
  3.3750	   7.5000	  0.0000	 
  3.3750	   7.6875	  0.0000	 
  3.6000	   4.5600	  0.0000	 
  3.6000	   4.7200	  0.0000	 
  3.6000	   4.8800	  0.0000	 
  3.6000	   5.0400	  0.0000	 
  3.6000	   5.2000	  0.0000	 
  3.6000	   5.3600	  0.0000	 
  3.6000	   5.5200	  0.0000	 
  3.6000	   5.6800	  0.0000	 
  3.6000	   5.8400	  0.0000	 
  3.6000	   6.0000	  0.0000	 
  3.6000	   6.1600	  0.0000	 
  3.6000	   6.3200	  0.0000	 
  3.6000	   6.4800	  0.0000	 
  3.6000	   6.6400	  0.0000	 
  3.6000	   6.8000	  0.0000	 
  3.6000	   6.9600	  0.0000	 
  3.6000	   7.1200	  0.0000	 
  3.6000	   7.2800	  0.0000	 
  3.6000	   7.4400	  0.0000	 
  3.8250	   4.8075	  0.0000	 
  3.8250	   4.9400	  0.0000	 
  3.8250	   5.0725	  0.0000	 
  3.8250	   5.2050	  0.0000	 
  3.8250	   5.3375	  0.0000	 
  3.8250	   5.4700	  0.0000	 
  3.8250	   5.6025	  0.0000	 
[...]
POINT_DATA 	    1451 
VECTORS U float 
 50.0000	   0.0000	   0.0000	
 50.0000	   0.0000	   0.0000	
 50.0000	   0.0000	   0.0000	
 50.0000	   0.0000	   0.0000	
 50.0000	  -0.0000	   0.0000	
 50.0000	  -0.0000	   0.0000	
 50.0000	   0.0000	   0.0000	
 50.0000	  -0.0000	   0.0000	
 50.0000	  -0.0000	   0.0000	
 50.0000	   0.0000	   0.0000	
 50.0000	  -0.0000	   0.0000	
 50.0000	  -0.0000	   0.0000	
 50.0000	   0.0000	   0.0000	
 50.0000	   0.0000	   0.0000	
 50.0000	  -0.0000	   0.0000	
 50.0000	  -0.0000	   0.0000	
 50.0000	   0.0000	   0.0000	
 50.0000	   0.0000	   0.0000	
 50.0000	  -0.0000	   0.0000	
 44.9289	  36.1494	   0.0000	
 55.8840	   1.8721	   0.0000	
 47.0868	  37.8622	   0.0000	
 51.2405	  13.4522	   0.0000	
 50.0530	  28.2489	   0.0000	
 47.2593	  35.5915	   0.0000	
 47.7270	  56.2897	   0.0000	
 49.7653	  63.2958	   0.0000	
 49.1616	  68.6605	   0.0000	
 48.3675	  72.2107	   0.0000	
 51.4882	  75.5502	   0.0000	
 49.6442	  69.2206	   0.0000	
 52.1658	  65.2570	   0.0000	
 52.2194	  47.1587	   0.0000	
 49.8179	  38.2013	   0.0000	
 50.3769	  33.3511	   0.0000	
 50.1690	  33.8479	   0.0000	
 49.1048	  31.0292	   0.0000	
 51.1037	  28.4765	   0.0000	
 73.4496	  20.0821	   0.0000	
 18.1595	  43.1432	   0.0000	
 68.9829	  45.3730	   0.0000	
 38.2356	  45.2811	   0.0000	
 48.1109	  58.2471	   0.0000	
 36.2586	  59.0970	   0.0000	
 43.9408	  66.3900	   0.0000	
 46.9422	  71.0317	   0.0000	
 48.4263	  71.8265	   0.0000	
 48.1691	  72.8519	   0.0000	
 49.0863	  73.9094	   0.0000	
 52.5798	  80.8101	   0.0000	
 53.0706	  79.8920	   0.0000	
 62.8840	  78.0704	   0.0000	
 53.4739	  76.2566	   0.0000	
 54.3328	  70.1398	   0.0000	
 49.0504	  60.7682	   0.0000	
 52.1295	  57.6798	   0.0000	
 52.4546	  60.2650	   0.0000	
 46.3878	  55.3892	   0.0000	
 37.3050	  49.6700	   0.0000	
 63.3999	  62.8221	   0.0000	
 33.5025	  64.6576	   0.0000	
 49.7265	  66.2160	   0.0000	
 36.6139	  63.9141	   0.0000	
 45.4642	  63.0353	   0.0000	
 46.7186	  62.5829	   0.0000	
 47.2488	  66.8692	   0.0000	
 46.7293	  69.3006	   0.0000	
 49.5666	  72.5436	   0.0000	
 48.8073	  70.4106	   0.0000	
 51.1486	  78.1578	   0.0000	
 59.6379	  80.2654	   0.0000	
 53.2600	  88.2342	   0.0000	
 53.3019	  92.9152	   0.0000	
 55.9623	  90.6856	   0.0000	
 55.4215	  77.4855	   0.0000	
 44.3052	  80.1472	   0.0000	
 22.4888	  60.9000	   0.0000	
 48.2265	  49.0766	   0.0000	
 48.3029	  78.7855	   0.0000	
 38.7131	  65.0428	   0.0000	
 46.6968	  69.5559	   0.0000	
 36.4098	  62.9990	   0.0000	
 46.1735	  65.5165	   0.0000	
 44.5414	  68.5737	   0.0000	
 46.6972	  70.7693	   0.0000	
 46.0158	  72.0387	   0.0000	
 47.6750	  73.3986	   0.0000	
 49.7698	  77.5826	   0.0000	
 47.8833	  77.0410	   0.0000	
 58.8185	  79.1279	   0.0000	
 51.4777	  86.8755	   0.0000	
 51.3029	  92.8124	   0.0000	
 56.1301	 100.3853	   0.0000	
 60.1802	  98.7871	   0.0000	
 47.2822	  87.0861	   0.0000	
 51.2587	  56.0336	   0.0000	
 33.5488	  63.2067	   0.0000	
 48.6623	  73.1453	   0.0000	
 41.5940	  62.9354	   0.0000	
 47.6508	  65.2731	   0.0000	
 37.5325	  61.7812	   0.0000	
 45.3833	  65.1122	   0.0000	
 43.5250	  66.8150	   0.0000	
 45.7381	  69.4915	   0.0000	
 44.6939	  71.9800	   0.0000	
 47.7227	  74.5442	   0.0000	
 47.2526	  74.0578	   0.0000	
 48.4264	  78.9467	   0.0000	
 54.5378	  76.3847	   0.0000	
 49.7489	  84.8310	   0.0000	
 47.6647	  89.2835	   0.0000	
 50.6670	  92.3354	   0.0000	
 57.4041	  98.1579	   0.0000	
 65.3502	 102.6925	   0.0000	
 43.8733	  62.3825	   0.0000	
 35.4513	  52.9565	   0.0000	
 50.9696	  60.9712	   0.0000	
 40.6993	  57.0466	   0.0000	
 45.5470	  65.2107	   0.0000	
 36.7440	  62.4126	   0.0000	
 45.0797	  65.9462	   0.0000	
 41.7137	  67.8823	   0.0000	
 44.9528	  70.6746	   0.0000	
 43.8989	  71.8295	   0.0000	
 45.9066	  73.7350	   0.0000	
 47.9004	  76.5504	   0.0000	
 45.4058	  76.6116	   0.0000	
 54.5337	  79.1646	   0.0000	
 48.3687	  82.3687	   0.0000	
 47.4166	  83.2493	   0.0000	
 47.8858	  84.0794	   0.0000	
 52.3310	  85.0211	   0.0000	
 54.5949	  95.3246	   0.0000	
 46.3394	  63.0748	   0.0000	
 36.9060	  50.8758	   0.0000	
 48.9317	  66.7171	   0.0000	
 38.1489	  62.3049	   0.0000	
 44.9690	  67.5474	   0.0000	
 36.8951	  63.7069	   0.0000	
 43.9640	  67.5940	   0.0000	
 40.6041	  68.8559	   0.0000	
 43.9278	  71.2244	   0.0000	
 42.7409	  73.5533	   0.0000	
 45.2077	  75.2881	   0.0000	
 45.8897	  76.5611	   0.0000	
 46.1158	  79.8510	   0.0000	
 50.3294	  77.3495	   0.0000	
 48.9938	  85.8071	   0.0000	
 47.8138	  83.9652	   0.0000	
 46.6032	  84.1012	   0.0000	
 49.9695	  84.3021	   0.0000	
 47.4929	  87.3437	   0.0000	
 44.2403	  64.5579	   0.0000	
 37.2340	  56.6167	   0.0000	
 46.8008	  65.1765	   0.0000	
 37.0807	  60.3022	   0.0000	
 44.7926	  65.7358	   0.0000	
 35.9003	  63.4148	   0.0000	
 43.1718	  67.4404	   0.0000	
 39.2141	  68.6807	   0.0000	
 42.7883	  71.4269	   0.0000	
 41.6889	  73.1927	   0.0000	
 43.9470	  75.1204	   0.0000	
 45.4352	  76.4156	   0.0000	
 43.9643	  78.2278	   0.0000	
 50.8841	  78.5632	   0.0000	
 44.6018	  81.2266	   0.0000	
 49.8637	  84.6258	   0.0000	
 46.4394	  84.0101	   0.0000	
 47.9402	  84.4773	   0.0000	
 47.0865	  90.9618	   0.0000	
 43.7419	  61.9328	   0.0000	
 37.6432	  56.1938	   0.0000	
 45.2260	  65.2766	   0.0000	
 36.6191	  60.3734	   0.0000	
 43.0020	  66.9574	   0.0000	
 35.4444	  64.8110	   0.0000	
 41.8342	  68.7603	   0.0000	
 37.9874	  70.0286	   0.0000	
 41.4249	  72.7205	   0.0000	
 40.6352	  74.7551	   0.0000	
 42.6334	  76.3594	   0.0000	
 44.5850	  78.1583	   0.0000	
 43.0951	  79.5716	   0.0000	
 48.6196	  79.2156	   0.0000	
 45.7671	  83.8217	   0.0000	
 45.8762	  80.8622	   0.0000	
 48.2256	  85.6119	   0.0000	
 46.9616	  83.8433	   0.0000	
 41.9481	  90.0132	   0.0000	
 41.9546	  60.7699	   0.0000	
 36.5522	  57.0880	   0.0000	
 44.2303	  64.4274	   0.0000	
 34.4407	  60.3675	   0.0000	
 41.9727	  66.6217	   0.0000	
 34.2139	  64.7032	   0.0000	
 40.4526	  68.9349	   0.0000	
 36.4554	  70.3044	   0.0000	
 40.0353	  72.7099	   0.0000	
 39.4520	  74.6484	   0.0000	
 41.4169	  76.3420	   0.0000	
 43.3616	  77.5632	   0.0000	
 42.4101	  79.9243	   0.0000	
 47.7302	  77.9892	   0.0000	
 43.2925	  82.3309	   0.0000	
 49.2969	  80.3488	   0.0000	
 42.2327	  81.7380	   0.0000	
 49.8460	  84.4385	   0.0000	
 41.5770	  86.5105	   0.0000	
 39.2188	  61.3522	   0.0000	
 37.5394	  58.1204	   0.0000	
 41.2601	  64.6059	   0.0000	
 33.6851	  61.2545	   0.0000	
 40.1667	  67.1783	   0.0000	
 33.2206	  65.9921	   0.0000	
 38.5230	  70.3323	   0.0000	
 35.3740	  71.3426	   0.0000	
 38.3264	  74.2622	   0.0000	
 38.0339	  76.5563	   0.0000	
 40.0444	  78.4153	   0.0000	
 42.3536	  79.5468	   0.0000	
 40.8472	  81.3143	   0.0000	
 47.9163	  80.1025	   0.0000	
 41.6125	  82.8019	   0.0000	
 49.0289	  80.1833	   0.0000	
 44.0070	  84.0262	   0.0000	
 43.7297	  82.5552	   0.0000	
 45.8134	  89.1605	   0.0000	
 40.3563	  61.5972	   0.0000	
 34.7689	  59.4843	   0.0000	
 39.6656	  64.7660	   0.0000	
 32.0385	  60.9289	   0.0000	
 37.8574	  66.9793	   0.0000	
 31.5346	  66.4645	   0.0000	
 36.8334	  70.2686	   0.0000	
 33.5124	  72.0818	   0.0000	
 36.3805	  74.5586	   0.0000	
 36.8322	  76.2383	   0.0000	
 38.3126	  78.1078	   0.0000	
 41.3970	  79.7357	   0.0000	
 40.0490	  81.2141	   0.0000	
 46.6737	  79.3096	   0.0000	
 42.1661	  83.5358	   0.0000	
 48.2444	  77.9112	   0.0000	
 41.1051	  86.5137	   0.0000	
 48.0807	  83.8513	   0.0000	
 36.5920	  88.2476	   0.0000	
 36.2960	  59.2485	   0.0000	
 34.2674	  59.8744	   0.0000	
 37.5950	  64.9514	   0.0000	
 30.6334	  62.7618	   0.0000	
 34.8814	  68.1900	   0.0000	
 30.5959	  67.4002	   0.0000	
 33.7224	  71.8428	   0.0000	
 32.0083	  73.8593	   0.0000	
 34.5976	  76.5231	   0.0000	
 34.7333	  79.0450	   0.0000	
 36.6052	  80.6320	   0.0000	
 39.1668	  82.2449	   0.0000	
 39.4613	  84.4213	   0.0000	
 46.0038	  81.7045	   0.0000	
 40.1403	  85.8757	   0.0000	
 50.7853	  80.6537	   0.0000	
 36.7300	  87.6412	   0.0000	
 47.7431	  82.2028	   0.0000	
 45.3121	  79.4388	   0.0000	
 32.8999	  59.1232	   0.0000	
 31.3492	  60.1420	   0.0000	
 33.3671	  65.7698	   0.0000	
 28.8637	  64.2235	   0.0000	
 32.9684	  68.0957	   0.0000	
 28.0279	  68.9572	   0.0000	
 30.7966	  73.0144	   0.0000	
 30.1876	  74.4377	   0.0000	
 32.1737	  77.0407	   0.0000	
 32.3709	  79.2075	   0.0000	
 35.4832	  82.1404	   0.0000	
 36.7370	  82.7650	   0.0000	
 38.1594	  84.9283	   0.0000	
 45.9420	  82.5096	   0.0000	
 39.1166	  85.7851	   0.0000	
 49.6558	  80.2109	   0.0000	
 40.9246	  87.3527	   0.0000	
 45.8859	  78.9821	   0.0000	
 50.8318	  75.2962	   0.0000	
 28.2829	  56.9745	   0.0000	
 28.3907	  61.9560	   0.0000	
 29.0171	  65.0528	   0.0000	
 29.4002	  65.9217	   0.0000	
 27.0445	  68.6939	   0.0000	
 25.8901	  69.5871	   0.0000	
 28.0888	  72.6681	   0.0000	
 27.9393	  75.2392	   0.0000	
 28.8276	  78.7116	   0.0000	
 29.5647	  81.6343	   0.0000	
 31.3863	  84.1621	   0.0000	
 36.3151	  86.5464	   0.0000	
 36.5593	  85.8338	   0.0000	
 42.1877	  85.9039	   0.0000	
 41.3499	  91.4984	   0.0000	
 46.8274	  86.5835	   0.0000	
 43.0728	  89.8035	   0.0000	
 49.5914	  83.3953	   0.0000	
 51.9318	  75.3855	   0.0000	
 24.8238	  57.2001	   0.0000	
 25.6014	  63.1648	   0.0000	
 22.2149	  67.2267	   0.0000	
 26.1307	  73.0388	   0.0000	
 25.1201	  74.8997	   0.0000	
 25.2312	  74.7366	   0.0000	
 24.6844	  76.0484	   0.0000	
 23.4210	  79.3639	   0.0000	
 26.0668	  81.6649	   0.0000	
 25.1504	  84.8587	   0.0000	
 27.5113	  87.6165	   0.0000	
 31.7311	  90.7322	   0.0000	
 38.0790	  92.9375	   0.0000	
 37.1376	  91.2855	   0.0000	
 33.5752	  98.6144	   0.0000	
 46.6624	  94.3656	   0.0000	
 50.4953	  89.8451	   0.0000	
 45.4413	  87.2433	   0.0000	
 57.9093	  76.3603	   0.0000	
 14.5241	  56.7212	   0.0000	
 13.7263	  63.8978	   0.0000	
 21.8543	  67.0217	   0.0000	
 19.3090	  70.3876	   0.0000	
 24.9617	  73.8030	   0.0000	
 24.4852	  72.8239	   0.0000	
 18.3436	  74.2483	   0.0000	
 21.7678	  75.3142	   0.0000	
 21.1073	  77.8032	   0.0000	
 21.3754	  79.5483	   0.0000	
 23.0561	  82.1119	   0.0000	
 25.6823	  85.1234	   0.0000	
 27.2280	  90.6547	   0.0000	
 41.7204	  94.5043	   0.0000	
 22.9034	 102.8352	   0.0000	
 36.6995	 108.2373	   0.0000	
 53.2300	 100.5418	   0.0000	
 58.2638	  96.0213	   0.0000	
 60.3533	  85.8318	   0.0000	
 10.2358	  55.2179	   0.0000	
  9.9498	  68.2708	   0.0000	
 13.9305	  75.7543	   0.0000	
 27.1887	  80.3914	   0.0000	
 29.2998	  80.5997	   0.0000	
 15.2888	  76.8798	   0.0000	
 20.2197	  80.0167	   0.0000	
 14.1510	  84.2990	   0.0000	
 18.7650	  88.0068	   0.0000	
 10.1794	  93.6200	   0.0000	
 19.0338	  98.4466	   0.0000	
 13.2823	 103.2491	   0.0000	
 13.3417	 112.1065	   0.0000	
 13.7044	 122.7004	   0.0000	
 32.5580	 127.8330	   0.0000	
 10.0683	 132.5505	   0.0000	
 26.9263	 127.5231	   0.0000	
 71.1824	 104.8809	   0.0000	
 74.8864	  80.9353	   0.0000	
 -0.3983	  49.4429	   0.0000	
  8.2867	  58.7303	   0.0000	
 17.1580	  64.4121	   0.0000	
 25.1380	  74.0788	   0.0000	
  5.8371	  78.1892	   0.0000	
  1.6694	  83.7916	   0.0000	
  5.5960	  86.8218	   0.0000	
  2.8524	  90.9040	   0.0000	
  6.6280	  94.6581	   0.0000	
 -1.6294	  97.3120	   0.0000	
  7.7477	  99.5562	   0.0000	
  3.1010	 104.6258	   0.0000	
 -2.3472	 105.4553	   0.0000	
  6.8804	 108.6990	   0.0000	
-11.5459	 106.3552	   0.0000	
 13.1406	 112.6239	   0.0000	
 16.9256	 115.6845	   0.0000	
 22.1678	 119.2815	   0.0000	
 61.8195	 105.3800	   0.0000	
 -0.0000	  -0.0000	   0.0000	
  0.0000	   0.0000	   0.0000	
 -0.0000	   0.0000	   0.0000	
 -0.0000	   0.0000	   0.0000	
  0.0000	  -0.0000	   0.0000	
 -0.0000	   0.0000	   0.0000	
  0.0000	   0.0000	   0.0000	
  0.0000	  -0.0000	   0.0000	
 -0.0000	  -0.0000	   0.0000	
  0.0000	   0.0000	   0.0000	
  0.0000	   0.0000	   0.0000	
  0.0000	  -0.0000	   0.0000	
 -0.0000	  -0.0000	   0.0000	
 -0.0000	   0.0000	   0.0000	
 -0.0000	  -0.0000	   0.0000	
 -0.0000	  -0.0000	   0.0000	
  0.0000	  -0.0000	   0.0000	
 -0.0000	  -0.0000	   0.0000	
  0.0000	   0.0000	   0.0000	
 50.0000	  50.0000	   0.0000	
 50.0000	  -0.0000	   0.0000	
 74.7777	  48.4739	   0.0000	
 49.1880	  17.7396	   0.0000	
 45.5780	  58.6634	   0.0000	
 57.3332	  37.0085	   0.0000	
 82.0282	  46.3848	   0.0000	
 74.7174	  58.9263	   0.0000	
 65.3934	  60.3079	   0.0000	
 71.9600	  72.6549	   0.0000	
 35.9977	  75.0487	   0.0000	
 56.9722	  78.4854	   0.0000	
 50.7043	  65.9453	   0.0000	
 70.9438	  96.6450	   0.0000	
 46.2471	  67.8213	   0.0000	
 59.8797	  88.0194	   0.0000	
 49.9374	  61.6058	   0.0000	
 53.7824	  82.8605	   0.0000	
 45.2194	  63.9635	   0.0000	
 56.0230	  82.0383	   0.0000	
 46.0987	  60.3520	   0.0000	
 51.5127	  77.5544	   0.0000	
 43.0266	  60.6804	   0.0000	
 51.2746	  76.0452	   0.0000	
 39.2188	  60.7708	   0.0000	
 57.8466	  77.1744	   0.0000	
 39.6454	  57.9165	   0.0000	
 45.3130	  69.5448	   0.0000	
 34.1663	  56.4479	   0.0000	
 51.8788	  69.8075	   0.0000	
 30.3567	  54.5615	   0.0000	
 55.3907	  68.7288	   0.0000	
 21.8772	  53.1114	   0.0000	
 61.2005	  66.9432	   0.0000	
 16.3014	  47.8891	   0.0000	
 71.0354	  65.0348	   0.0000	
 -1.6890	  42.6095	   0.0000	
 83.3363	  59.7370	   0.0000	
-19.5705	  36.2230	   0.0000	
129.0970	  70.5728	   0.0000	
 -0.0000	   0.0000	   0.0000	
 -0.0000	  -0.0000	   0.0000	
 51.9154	  50.0000	   0.0000	
 93.6566	 168.4489	   0.0000	
 45.1289	  49.3200	   0.0000	
 55.5130	 148.9591	   0.0000	
 43.6124	  50.9583	   0.0000	
 31.4315	 130.7245	   0.0000	
 37.9171	  50.3539	   0.0000	
 22.1467	 118.4735	   0.0000	
 42.1655	  49.6089	   0.0000	
 19.6481	 111.2950	   0.0000	
 46.0972	  47.8152	   0.0000	
 18.7837	 106.2736	   0.0000	
 42.8920	  48.6075	   0.0000	
 20.9759	 102.1597	   0.0000	
 42.6716	  49.2055	   0.0000	
 22.2998	  98.2500	   0.0000	
 42.4139	  48.6189	   0.0000	
 21.7364	  93.1404	   0.0000	
 41.6502	  48.0791	   0.0000	
 22.0614	  88.0034	   0.0000	
 38.5672	  48.2940	   0.0000	
 33.7873	  87.9104	   0.0000	
 44.7260	  45.0834	   0.0000	
 24.3778	  79.9015	   0.0000	
 39.7173	  45.7087	   0.0000	
 30.9718	  77.8536	   0.0000	
 40.6893	  43.1553	   0.0000	
 32.1004	  73.2457	   0.0000	
 40.6818	  38.9688	   0.0000	
 33.9975	  67.8747	   0.0000	
 42.4230	  34.2404	   0.0000	
 36.5927	  59.8864	   0.0000	
 39.7718	  29.9552	   0.0000	
 39.2225	  50.7381	   0.0000	
 21.4542	  26.2134	   0.0000	
 68.8372	  45.2174	   0.0000	
 48.0649	   4.1500	   0.0000	
 55.2261	  20.4152	   0.0000	
 35.9190	  -0.8007	   0.0000	
 -3.6802	  -1.6056	   0.0000	
 -0.0000	   0.0000	   0.0000	
 -0.0000	  -0.0000	   0.0000	
 44.7231	  50.0000	   0.0000	
-48.5427	  62.4725	   0.0000	
 52.4343	  49.9035	   0.0000	
-14.2868	  64.4743	   0.0000	
 42.7532	  50.4291	   0.0000	
 -1.2735	  64.6990	   0.0000	
 41.6299	  51.8852	   0.0000	
  5.1525	  64.5091	   0.0000	
 43.2874	  51.9119	   0.0000	
  6.9202	  63.4951	   0.0000	
 42.6636	  52.2733	   0.0000	
  8.0157	  62.5418	   0.0000	
 44.4806	  52.6688	   0.0000	
  8.2052	  61.7951	   0.0000	
 45.1880	  52.7415	   0.0000	
  9.6839	  60.5402	   0.0000	
 43.6796	  53.4572	   0.0000	
 13.4721	  59.3868	   0.0000	
 42.3606	  54.9112	   0.0000	
 17.7491	  59.2500	   0.0000	
 44.0757	  55.1658	   0.0000	
 14.6732	  57.8561	   0.0000	
 46.5432	  55.9195	   0.0000	
 15.7086	  56.2999	   0.0000	
 51.9989	  56.5587	   0.0000	
 16.6116	  54.6473	   0.0000	
 50.4963	  58.7580	   0.0000	
 10.2511	  52.5759	   0.0000	
 54.2577	  60.5248	   0.0000	
 10.2790	  51.7070	   0.0000	
 63.7275	  61.4314	   0.0000	
  1.4923	  48.1590	   0.0000	
 63.7163	  62.5674	   0.0000	
 11.4260	  44.8755	   0.0000	
 79.0867	  66.5687	   0.0000	
 14.4179	  42.6189	   0.0000	
 78.8096	  69.5505	   0.0000	
 -2.2330	  45.8025	   0.0000	
 51.9187	  71.5208	   0.0000	
  1.0420	  52.1271	   0.0000	
 18.3625	  71.9493	   0.0000	
 12.2653	  55.9753	   0.0000	
 44.4230	  50.0000	   0.0000	
  8.7420	  52.2769	   0.0000	
 37.8390	  49.4429	   0.0000	
 -2.8302	  57.1195	   0.0000	
 39.1106	  50.4072	   0.0000	
  6.7341	  57.2776	   0.0000	
 39.0842	  50.0534	   0.0000	
  5.5558	  57.5635	   0.0000	
 38.6349	  50.2799	   0.0000	
  6.7230	  58.0609	   0.0000	
 40.0673	  50.8015	   0.0000	
  7.6985	  58.2655	   0.0000	
 39.1071	  50.7734	   0.0000	
 11.5482	  57.4280	   0.0000	
 39.0037	  51.4583	   0.0000	
  9.1466	  59.3449	   0.0000	
 39.6072	  52.0446	   0.0000	
 12.9896	  58.7607	   0.0000	
 35.1753	  51.5273	   0.0000	
 14.7206	  58.4057	   0.0000	
 41.1189	  52.3047	   0.0000	
 14.3077	  58.4674	   0.0000	
 37.9867	  52.3755	   0.0000	
 16.0309	  57.8664	   0.0000	
 35.4479	  53.3820	   0.0000	
 14.6224	  59.3023	   0.0000	
 40.7290	  55.3510	   0.0000	
 16.3868	  59.9228	   0.0000	
 36.8194	  55.7861	   0.0000	
 17.8300	  59.8181	   0.0000	
 38.6374	  59.1124	   0.0000	
 12.4828	  63.5212	   0.0000	
 37.0157	  62.8891	   0.0000	
 12.2048	  66.0505	   0.0000	
 34.6402	  68.5470	   0.0000	
 13.6968	  68.7045	   0.0000	
 36.6063	  76.4217	   0.0000	
 25.9842	  65.7257	   0.0000	
 34.4706	  87.6361	   0.0000	
 19.5758	  73.4803	   0.0000	
 15.1625	  88.5972	   0.0000	
 21.1628	  74.3975	   0.0000	
 40.1211	  50.0000	   0.0000	
 -0.2481	  45.8797	   0.0000	
 42.1219	  50.4874	   0.0000	
  2.0177	  45.5825	   0.0000	
 41.6729	  50.8951	   0.0000	
  3.9172	  44.9846	   0.0000	
 40.8713	  50.6047	   0.0000	
  7.5823	  44.4819	   0.0000	
 40.7165	  50.2205	   0.0000	
  9.3910	  43.7312	   0.0000	
 40.3206	  49.7489	   0.0000	
  2.9718	  47.8281	   0.0000	
 39.7548	  49.6871	   0.0000	
  9.1458	  45.3164	   0.0000	
 39.5145	  49.6971	   0.0000	
  5.9891	  48.2556	   0.0000	
 39.0927	  49.6989	   0.0000	
  9.0426	  47.5968	   0.0000	
 38.4304	  49.5793	   0.0000	
 10.9413	  47.2936	   0.0000	
 37.6570	  49.6496	   0.0000	
 10.8227	  48.4040	   0.0000	
 39.2226	  50.4622	   0.0000	
 10.7782	  48.7178	   0.0000	
 38.4768	  50.9174	   0.0000	
 12.0773	  48.8975	   0.0000	
 36.6196	  50.0598	   0.0000	
 14.1223	  48.5206	   0.0000	
 37.7239	  50.8946	   0.0000	
 13.7450	  49.4216	   0.0000	
 37.2176	  51.8007	   0.0000	
 15.0433	  49.5009	   0.0000	
 35.6259	  51.4699	   0.0000	
 16.9294	  49.1881	   0.0000	
 35.6328	  52.7084	   0.0000	
 15.9431	  51.9964	   0.0000	
 31.0823	  51.1744	   0.0000	
 22.1227	  51.9489	   0.0000	
 32.1237	  52.7184	   0.0000	
 17.2905	  56.2944	   0.0000	
 18.9388	  51.4709	   0.0000	
 28.7680	  52.5547	   0.0000	
 48.0323	  50.0000	   0.0000	
 -0.2524	  28.2515	   0.0000	
 45.9149	  49.2216	   0.0000	
  1.2088	  29.6635	   0.0000	
 43.7808	  48.4592	   0.0000	
  1.6433	  31.1341	   0.0000	
 43.7337	  48.1646	   0.0000	
  3.2964	  32.6307	   0.0000	
 45.8270	  48.7479	   0.0000	
  4.8318	  33.6245	   0.0000	
 45.4365	  47.9909	   0.0000	
  6.6096	  35.0953	   0.0000	
 40.3427	  44.9468	   0.0000	
  7.6342	  36.5730	   0.0000	
 40.9641	  46.1560	   0.0000	
  6.8040	  37.9817	   0.0000	
 40.2134	  46.3334	   0.0000	
  9.9887	  37.1027	   0.0000	
 39.1223	  46.9717	   0.0000	
 10.9858	  39.4900	   0.0000	
 38.1049	  46.6404	   0.0000	
 12.7619	  40.4649	   0.0000	
 37.4297	  47.3110	   0.0000	
 13.9923	  41.9092	   0.0000	
 35.5988	  47.2653	   0.0000	
 15.9180	  43.4473	   0.0000	
 35.8081	  48.8784	   0.0000	
 15.3981	  46.1046	   0.0000	
 33.8259	  49.0097	   0.0000	
 18.0320	  46.8416	   0.0000	
 32.3404	  50.5097	   0.0000	
 19.8361	  48.8816	   0.0000	
 31.9709	  51.3267	   0.0000	
 20.6333	  50.0118	   0.0000	
 29.9282	  52.2517	   0.0000	
 21.5858	  51.7596	   0.0000	
 27.7166	  53.5651	   0.0000	
 23.1301	  53.2505	   0.0000	
 27.4085	  55.4899	   0.0000	
 25.7892	  52.4930	   0.0000	
 25.3484	  54.8453	   0.0000	
 24.2390	  54.4720	   0.0000	
  0.0000	   0.0000	   0.0000	
  0.0000	   0.0000	   0.0000	
 -0.0000	   0.0000	   0.0000	
  0.0000	  -0.0000	   0.0000	
 -0.0000	   0.0000	   0.0000	
  0.0000	   0.0000	   0.0000	
 -0.0000	   0.0000	   0.0000	
 -0.0000	  -0.0000	   0.0000	
 -0.0000	  -0.0000	   0.0000	
 -0.0000	   0.0000	   0.0000	
 -0.0000	  -0.0000	   0.0000	
 -0.0000	  -0.0000	   0.0000	
 -0.0000	   0.0000	   0.0000	
 -0.0000	  -0.0000	   0.0000	