# vtk DataFile Version 3.0 
Results 
ASCII 
DATASET UNSTRUCTURED_GRID 
POINTS 	    1451 float 
  0.0000	   0.6000	  0.0000	 
  0.0000	   1.2000	  0.0000	 
  0.0000	   1.8000	  0.0000	 
  0.0000	   2.4000	  0.0000	 
  0.0000	   3.0000	  0.0000	 
  0.0000	   3.6000	  0.0000	 
  0.0000	   4.2000	  0.0000	 
  0.0000	   4.8000	  0.0000	 
  0.0000	   5.4000	  0.0000	 
  0.0000	   6.0000	  0.0000	 
  0.0000	   6.6000	  0.0000	 
  0.0000	   7.2000	  0.0000	 
  0.0000	   7.8000	  0.0000	 
  0.0000	   8.4000	  0.0000	 
  0.0000	   9.0000	  0.0000	 
  0.0000	   9.6000	  0.0000	 
  0.0000	  10.2000	  0.0000	 
  0.0000	  10.8000	  0.0000	 
  0.0000	  11.4000	  0.0000	 
  0.2250	   0.8475	  0.0000	 
  0.2250	   1.4200	  0.0000	 
  0.2250	   1.9925	  0.0000	 
  0.2250	   2.5650	  0.0000	 
  0.2250	   3.1375	  0.0000	 
  0.2250	   3.7100	  0.0000	 
  0.2250	   4.2825	  0.0000	 
  0.2250	   4.8550	  0.0000	 
  0.2250	   5.4275	  0.0000	 
  0.2250	   6.0000	  0.0000	 
  0.2250	   6.5725	  0.0000	 
  0.2250	   7.1450	  0.0000	 
  0.2250	   7.7175	  0.0000	 
  0.2250	   8.2900	  0.0000	 
  0.2250	   8.8625	  0.0000	 
  0.2250	   9.4350	  0.0000	 
  0.2250	  10.0075	  0.0000	 
  0.2250	  10.5800	  0.0000	 
  0.2250	  11.1525	  0.0000	 
  0.4500	   1.0950	  0.0000	 
  0.4500	   1.6400	  0.0000	 
  0.4500	   2.1850	  0.0000	 
  0.4500	   2.7300	  0.0000	 
  0.4500	   3.2750	  0.0000	 
  0.4500	   3.8200	  0.0000	 
  0.4500	   4.3650	  0.0000	 
  0.4500	   4.9100	  0.0000	 
  0.4500	   5.4550	  0.0000	 
  0.4500	   6.0000	  0.0000	 
  0.4500	   6.5450	  0.0000	 
  0.4500	   7.0900	  0.0000	 
  0.4500	   7.6350	  0.0000	 
  0.4500	   8.1800	  0.0000	 
  0.4500	   8.7250	  0.0000	 
  0.4500	   9.2700	  0.0000	 
  0.4500	   9.8150	  0.0000	 
  0.4500	  10.3600	  0.0000	 
  0.4500	  10.9050	  0.0000	 
  0.6750	   1.3425	  0.0000	 
  0.6750	   1.8600	  0.0000	 
  0.6750	   2.3775	  0.0000	 
  0.6750	   2.8950	  0.0000	 
  0.6750	   3.4125	  0.0000	 
  0.6750	   3.9300	  0.0000	 
  0.6750	   4.4475	  0.0000	 
  0.6750	   4.9650	  0.0000	 
  0.6750	   5.4825	  0.0000	 
  0.6750	   6.0000	  0.0000	 
  0.6750	   6.5175	  0.0000	 
  0.6750	   7.0350	  0.0000	 
  0.6750	   7.5525	  0.0000	 
  0.6750	   8.0700	  0.0000	 
  0.6750	   8.5875	  0.0000	 
  0.6750	   9.1050	  0.0000	 
  0.6750	   9.6225	  0.0000	 
  0.6750	  10.1400	  0.0000	 
  0.6750	  10.6575	  0.0000	 
  0.9000	   1.5900	  0.0000	 
  0.9000	   2.0800	  0.0000	 
  0.9000	   2.5700	  0.0000	 
  0.9000	   3.0600	  0.0000	 
  0.9000	   3.5500	  0.0000	 
  0.9000	   4.0400	  0.0000	 
  0.9000	   4.5300	  0.0000	 
  0.9000	   5.0200	  0.0000	 
  0.9000	   5.5100	  0.0000	 
  0.9000	   6.0000	  0.0000	 
  0.9000	   6.4900	  0.0000	 
  0.9000	   6.9800	  0.0000	 
  0.9000	   7.4700	  0.0000	 
  0.9000	   7.9600	  0.0000	 
  0.9000	   8.4500	  0.0000	 
  0.9000	   8.9400	  0.0000	 
  0.9000	   9.4300	  0.0000	 
  0.9000	   9.9200	  0.0000	 
  0.9000	  10.4100	  0.0000	 
  1.1250	   1.8375	  0.0000	 
  1.1250	   2.3000	  0.0000	 
  1.1250	   2.7625	  0.0000	 
  1.1250	   3.2250	  0.0000	 
  1.1250	   3.6875	  0.0000	 
  1.1250	   4.1500	  0.0000	 
  1.1250	   4.6125	  0.0000	 
  1.1250	   5.0750	  0.0000	 
  1.1250	   5.5375	  0.0000	 
  1.1250	   6.0000	  0.0000	 
  1.1250	   6.4625	  0.0000	 
  1.1250	   6.9250	  0.0000	 
  1.1250	   7.3875	  0.0000	 
  1.1250	   7.8500	  0.0000	 
  1.1250	   8.3125	  0.0000	 
  1.1250	   8.7750	  0.0000	 
  1.1250	   9.2375	  0.0000	 
  1.1250	   9.7000	  0.0000	 
  1.1250	  10.1625	  0.0000	 
  1.3500	   2.0850	  0.0000	 
  1.3500	   2.5200	  0.0000	 
  1.3500	   2.9550	  0.0000	 
  1.3500	   3.3900	  0.0000	 
  1.3500	   3.8250	  0.0000	 
  1.3500	   4.2600	  0.0000	 
  1.3500	   4.6950	  0.0000	 
  1.3500	   5.1300	  0.0000	 
  1.3500	   5.5650	  0.0000	 
  1.3500	   6.0000	  0.0000	 
  1.3500	   6.4350	  0.0000	 
  1.3500	   6.8700	  0.0000	 
  1.3500	   7.3050	  0.0000	 
  1.3500	   7.7400	  0.0000	 
  1.3500	   8.1750	  0.0000	 
  1.3500	   8.6100	  0.0000	 
  1.3500	   9.0450	  0.0000	 
  1.3500	   9.4800	  0.0000	 
  1.3500	   9.9150	  0.0000	 
  1.5750	   2.3325	  0.0000	 
  1.5750	   2.7400	  0.0000	 
  1.5750	   3.1475	  0.0000	 
  1.5750	   3.5550	  0.0000	 
  1.5750	   3.9625	  0.0000	 
  1.5750	   4.3700	  0.0000	 
  1.5750	   4.7775	  0.0000	 
  1.5750	   5.1850	  0.0000	 
  1.5750	   5.5925	  0.0000	 
  1.5750	   6.0000	  0.0000	 
  1.5750	   6.4075	  0.0000	 
  1.5750	   6.8150	  0.0000	 
  1.5750	   7.2225	  0.0000	 
  1.5750	   7.6300	  0.0000	 
  1.5750	   8.0375	  0.0000	 
  1.5750	   8.4450	  0.0000	 
  1.5750	   8.8525	  0.0000	 
  1.5750	   9.2600	  0.0000	 
  1.5750	   9.6675	  0.0000	 
  1.8000	   2.5800	  0.0000	 
  1.8000	   2.9600	  0.0000	 
  1.8000	   3.3400	  0.0000	 
  1.8000	   3.7200	  0.0000	 
  1.8000	   4.1000	  0.0000	 
  1.8000	   4.4800	  0.0000	 
  1.8000	   4.8600	  0.0000	 
  1.8000	   5.2400	  0.0000	 
  1.8000	   5.6200	  0.0000	 
  1.8000	   6.0000	  0.0000	 
  1.8000	   6.3800	  0.0000	 
  1.8000	   6.7600	  0.0000	 
  1.8000	   7.1400	  0.0000	 
  1.8000	   7.5200	  0.0000	 
  1.8000	   7.9000	  0.0000	 
  1.8000	   8.2800	  0.0000	 
  1.8000	   8.6600	  0.0000	 
  1.8000	   9.0400	  0.0000	 
  1.8000	   9.4200	  0.0000	 
  2.0250	   2.8275	  0.0000	 
  2.0250	   3.1800	  0.0000	 
  2.0250	   3.5325	  0.0000	 
  2.0250	   3.8850	  0.0000	 
  2.0250	   4.2375	  0.0000	 
  2.0250	   4.5900	  0.0000	 
  2.0250	   4.9425	  0.0000	 
  2.0250	   5.2950	  0.0000	 
  2.0250	   5.6475	  0.0000	 
  2.0250	   6.0000	  0.0000	 
  2.0250	   6.3525	  0.0000	 
  2.0250	   6.7050	  0.0000	 
  2.0250	   7.0575	  0.0000	 
  2.0250	   7.4100	  0.0000	 
  2.0250	   7.7625	  0.0000	 
  2.0250	   8.1150	  0.0000	 
  2.0250	   8.4675	  0.0000	 
  2.0250	   8.8200	  0.0000	 
  2.0250	   9.1725	  0.0000	 
  2.2500	   3.0750	  0.0000	 
  2.2500	   3.4000	  0.0000	 
  2.2500	   3.7250	  0.0000	 
  2.2500	   4.0500	  0.0000	 
  2.2500	   4.3750	  0.0000	 
  2.2500	   4.7000	  0.0000	 
  2.2500	   5.0250	  0.0000	 
  2.2500	   5.3500	  0.0000	 
  2.2500	   5.6750	  0.0000	 
  2.2500	   6.0000	  0.0000	 
  2.2500	   6.3250	  0.0000	 
  2.2500	   6.6500	  0.0000	 
  2.2500	   6.9750	  0.0000	 
  2.2500	   7.3000	  0.0000	 
  2.2500	   7.6250	  0.0000	 
  2.2500	   7.9500	  0.0000	 
  2.2500	   8.2750	  0.0000	 
  2.2500	   8.6000	  0.0000	 
  2.2500	   8.9250	  0.0000	 
  2.4750	   3.3225	  0.0000	 
  2.4750	   3.6200	  0.0000	 
  2.4750	   3.9175	  0.0000	 
  2.4750	   4.2150	  0.0000	 
  2.4750	   4.5125	  0.0000	 
  2.4750	   4.8100	  0.0000	 
  2.4750	   5.1075	  0.0000	 
  2.4750	   5.4050	  0.0000	 
  2.4750	   5.7025	  0.0000	 
  2.4750	   6.0000	  0.0000	 
  2.4750	   6.2975	  0.0000	 
  2.4750	   6.5950	  0.0000	 
  2.4750	   6.8925	  0.0000	 
  2.4750	   7.1900	  0.0000	 
  2.4750	   7.4875	  0.0000	 
  2.4750	   7.7850	  0.0000	 
  2.4750	   8.0825	  0.0000	 
  2.4750	   8.3800	  0.0000	 
  2.4750	   8.6775	  0.0000	 
  2.7000	   3.5700	  0.0000	 
  2.7000	   3.8400	  0.0000	 
  2.7000	   4.1100	  0.0000	 
  2.7000	   4.3800	  0.0000	 
  2.7000	   4.6500	  0.0000	 
  2.7000	   4.9200	  0.0000	 
  2.7000	   5.1900	  0.0000	 
  2.7000	   5.4600	  0.0000	 
  2.7000	   5.7300	  0.0000	 
  2.7000	   6.0000	  0.0000	 
  2.7000	   6.2700	  0.0000	 
  2.7000	   6.5400	  0.0000	 
  2.7000	   6.8100	  0.0000	 
  2.7000	   7.0800	  0.0000	 
  2.7000	   7.3500	  0.0000	 
  2.7000	   7.6200	  0.0000	 
  2.7000	   7.8900	  0.0000	 
  2.7000	   8.1600	  0.0000	 
  2.7000	   8.4300	  0.0000	 
  2.9250	   3.8175	  0.0000	 
  2.9250	   4.0600	  0.0000	 
  2.9250	   4.3025	  0.0000	 
  2.9250	   4.5450	  0.0000	 
  2.9250	   4.7875	  0.0000	 
  2.9250	   5.0300	  0.0000	 
  2.9250	   5.2725	  0.0000	 
  2.9250	   5.5150	  0.0000	 
  2.9250	   5.7575	  0.0000	 
  2.9250	   6.0000	  0.0000	 
  2.9250	   6.2425	  0.0000	 
  2.9250	   6.4850	  0.0000	 
  2.9250	   6.7275	  0.0000	 
  2.9250	   6.9700	  0.0000	 
  2.9250	   7.2125	  0.0000	 
  2.9250	   7.4550	  0.0000	 
  2.9250	   7.6975	  0.0000	 
  2.9250	   7.9400	  0.0000	 
  2.9250	   8.1825	  0.0000	 
  3.1500	   4.0650	  0.0000	 
  3.1500	   4.2800	  0.0000	 
  3.1500	   4.4950	  0.0000	 
  3.1500	   4.7100	  0.0000	 
  3.1500	   4.9250	  0.0000	 
  3.1500	   5.1400	  0.0000	 
  3.1500	   5.3550	  0.0000	 
  3.1500	   5.5700	  0.0000	 
  3.1500	   5.7850	  0.0000	 
  3.1500	   6.0000	  0.0000	 
  3.1500	   6.2150	  0.0000	 
  3.1500	   6.4300	  0.0000	 
  3.1500	   6.6450	  0.0000	 
  3.1500	   6.8600	  0.0000	 
  3.1500	   7.0750	  0.0000	 
  3.1500	   7.2900	  0.0000	 
  3.1500	   7.5050	  0.0000	 
  3.1500	   7.7200	  0.0000	 
  3.1500	   7.9350	  0.0000	 
  3.3750	   4.3125	  0.0000	 
  3.3750	   4.5000	  0.0000	 
  3.3750	   4.6875	  0.0000	 
  3.3750	   4.8750	  0.0000	 
  3.3750	   5.0625	  0.0000	 
  3.3750	   5.2500	  0.0000	 
  3.3750	   5.4375	  0.0000	 
  3.3750	   5.6250	  0.0000	 
  3.3750	   5.8125	  0.0000	 
  3.3750	   6.0000	  0.0000	 
  3.3750	   6.1875	  0.0000	 
  3.3750	   6.3750	  0.0000	 
  3.3750	   6.5625	  0.0000	 
  3.3750	   6.7500	  0.0000	 
  3.3750	   6.9375	  0.0000	 
  3.3750	   7.1250	  0.0000	 
  3.3750	   7.3125	  0.0000	 
  3.3750	   7.5000	  0.0000	 
  3.3750	   7.6875	  0.0000	 
  3.6000	   4.5600	  0.0000	 
  3.6000	   4.7200	  0.0000	 
  3.6000	   4.8800	  0.0000	 
  3.6000	   5.0400	  0.0000	 
  3.6000	   5.2000	  0.0000	 
  3.6000	   5.3600	  0.0000	 
  3.6000	   5.5200	  0.0000	 
  3.6000	   5.6800	  0.0000	 
  3.6000	   5.8400	  0.0000	 
  3.6000	   6.0000	  0.0000	 
  3.6000	   6.1600	  0.0000	 
  3.6000	   6.3200	  0.0000	 
  3.6000	   6.4800	  0.0000	 
  3.6000	   6.6400	  0.0000	 
  3.6000	   6.8000	  0.0000	 
  3.6000	   6.9600	  0.0000	 
  3.6000	   7.1200	  0.0000	 
  3.6000	   7.2800	  0.0000	 
  3.6000	   7.4400	  0.0000	 
  3.8250	   4.8075	  0.0000	 
  3.8250	   4.9400	  0.0000	 
  3.8250	   5.0725	  0.0000	 
  3.8250	   5.2050	  0.0000	 
  3.8250	   5.3375	  0.0000	 
  3.8250	   5.4700	  0.0000	 
  3.8250	   5.6025	  0.0000	 
[...]
POINT_DATA 	    1451 
VECTORS U float 
 50.0000	   0.0000	   0.0000	
 50.0000	   0.0000	   0.0000	
 50.0000	   0.0000	   0.0000	
 50.0000	   0.0000	   0.0000	
 50.0000	  -0.0000	   0.0000	
 50.0000	  -0.0000	   0.0000	
 50.0000	   0.0000	   0.0000	
 50.0000	  -0.0000	   0.0000	
 50.0000	  -0.0000	   0.0000	
 50.0000	   0.0000	   0.0000	
 50.0000	  -0.0000	   0.0000	
 50.0000	  -0.0000	   0.0000	
 50.0000	   0.0000	   0.0000	
 50.0000	   0.0000	   0.0000	
 50.0000	  -0.0000	   0.0000	
 50.0000	  -0.0000	   0.0000	
 50.0000	   0.0000	   0.0000	
 50.0000	   0.0000	   0.0000	
 50.0000	  -0.0000	   0.0000	
 47.5511	  57.4492	   0.0000	
 55.5856	 -12.7916	   0.0000	
 50.4616	  47.2900	   0.0000	
 45.3622	  10.3481	   0.0000	
 54.5899	  30.8936	   0.0000	
 44.1204	  38.5449	   0.0000	
 48.8789	  60.7547	   0.0000	
 48.9280	  68.4848	   0.0000	
 49.5856	  72.9866	   0.0000	
 48.1700	  77.8593	   0.0000	
 51.3324	  80.4487	   0.0000	
 49.7242	  75.2871	   0.0000	
 52.6127	  70.9263	   0.0000	
 52.2517	  50.4112	   0.0000	
 50.1094	  39.6962	   0.0000	
 50.0385	  36.9293	   0.0000	
 50.2762	  36.2448	   0.0000	
 48.5981	  31.9122	   0.0000	
 51.4159	  30.4215	   0.0000	
 98.7028	  16.6498	   0.0000	
 -6.6581	  52.1862	   0.0000	
 84.1272	  44.5798	   0.0000	
 31.1280	  50.6974	   0.0000	
 50.6818	  60.0956	   0.0000	
 34.4363	  60.2315	   0.0000	
 45.0461	  65.1303	   0.0000	
 46.6086	  68.4832	   0.0000	
 48.5722	  69.4505	   0.0000	
 47.9775	  70.3418	   0.0000	
 49.0394	  71.1924	   0.0000	
 52.1310	  77.8968	   0.0000	
 52.6178	  78.4129	   0.0000	
 63.8261	  80.3890	   0.0000	
 54.8995	  80.9215	   0.0000	
 51.8550	  72.1632	   0.0000	
 50.9943	  66.2104	   0.0000	
 53.0230	  60.1672	   0.0000	
 52.6061	  63.2679	   0.0000	
 50.1204	  74.8636	   0.0000	
 42.1189	  36.7349	   0.0000	
 60.7629	  75.8124	   0.0000	
 33.7438	  62.9675	   0.0000	
 50.1598	  69.8081	   0.0000	
 36.4576	  63.8546	   0.0000	
 46.7068	  62.3528	   0.0000	
 46.0612	  64.0982	   0.0000	
 47.4812	  67.3796	   0.0000	
 46.9220	  70.4928	   0.0000	
 49.2050	  72.9434	   0.0000	
 49.1223	  71.8233	   0.0000	
 50.3441	  77.4138	   0.0000	
 58.9997	  79.9634	   0.0000	
 52.5665	  89.6667	   0.0000	
 54.6709	  96.8817	   0.0000	
 54.0349	  93.0919	   0.0000	
 57.6591	  80.3743	   0.0000	
 42.0278	  84.3269	   0.0000	
 21.2957	  64.0991	   0.0000	
 39.3715	  51.7796	   0.0000	
 53.8255	  78.9137	   0.0000	
 37.6437	  66.0785	   0.0000	
 47.7016	  68.5889	   0.0000	
 36.7946	  62.8692	   0.0000	
 46.8712	  65.1058	   0.0000	
 44.0048	  68.1201	   0.0000	
 46.7198	  69.8717	   0.0000	
 46.1617	  71.7930	   0.0000	
 47.3785	  73.1248	   0.0000	
 49.7927	  76.7783	   0.0000	
 47.4195	  77.2565	   0.0000	
 58.2613	  78.8392	   0.0000	
 50.1326	  86.8932	   0.0000	
 51.5028	  92.6793	   0.0000	
 54.1972	 101.4873	   0.0000	
 61.8421	  99.3374	   0.0000	
 47.1921	  88.8834	   0.0000	
 53.8134	  63.3437	   0.0000	
 34.4988	  56.4950	   0.0000	
 46.6743	  74.7605	   0.0000	
 43.9368	  60.3696	   0.0000	
 47.5497	  64.2101	   0.0000	
 38.1579	  62.3154	   0.0000	
 45.7083	  64.6611	   0.0000	
 43.3402	  67.1388	   0.0000	
 45.5882	  69.2432	   0.0000	
 45.1536	  71.8789	   0.0000	
 46.9322	  73.9339	   0.0000	
 47.9343	  74.4386	   0.0000	
 47.4931	  78.2564	   0.0000	
 54.3827	  76.4233	   0.0000	
 48.6550	  84.5933	   0.0000	
 47.6683	  87.0473	   0.0000	
 49.6123	  90.7329	   0.0000	
 56.7864	  96.1464	   0.0000	
 67.0705	 102.1586	   0.0000	
 43.2842	  62.5800	   0.0000	
 36.4285	  48.0132	   0.0000	
 51.1778	  57.1759	   0.0000	
 40.5169	  58.6198	   0.0000	
 45.4091	  65.3087	   0.0000	
 37.6797	  62.8905	   0.0000	
 45.0263	  65.9158	   0.0000	
 41.8453	  68.0239	   0.0000	
 44.5838	  70.2544	   0.0000	
 44.4850	  72.0873	   0.0000	
 45.1821	  73.6655	   0.0000	
 48.3445	  76.2898	   0.0000	
 44.8334	  76.9097	   0.0000	
 54.2480	  78.5673	   0.0000	
 47.3161	  82.5998	   0.0000	
 48.4235	  81.7682	   0.0000	
 47.6569	  81.9553	   0.0000	
 51.2288	  80.9460	   0.0000	
 55.1406	  90.7035	   0.0000	
 46.8195	  63.4984	   0.0000	
 37.3208	  56.1531	   0.0000	
 47.6766	  66.0469	   0.0000	
 39.1601	  63.0859	   0.0000	
 44.8053	  65.7470	   0.0000	
 37.9681	  64.0271	   0.0000	
 43.7006	  66.8247	   0.0000	
 41.0036	  68.6712	   0.0000	
 43.3758	  70.6317	   0.0000	
 43.4675	  73.0822	   0.0000	
 44.2541	  74.8184	   0.0000	
 46.6534	  76.1542	   0.0000	
 45.0755	  79.4375	   0.0000	
 50.6329	  77.2502	   0.0000	
 47.6195	  85.6617	   0.0000	
 48.4961	  83.1882	   0.0000	
 46.9967	  85.8957	   0.0000	
 49.9060	  84.3783	   0.0000	
 47.8504	  87.2660	   0.0000	
 41.9162	  64.8873	   0.0000	
 39.6515	  55.8120	   0.0000	
 46.1130	  63.2886	   0.0000	
 38.3908	  59.8616	   0.0000	
 43.8334	  65.0245	   0.0000	
 37.3589	  63.7467	   0.0000	
 42.4096	  67.1508	   0.0000	
 39.9559	  68.8910	   0.0000	
 42.0244	  71.2591	   0.0000	
 42.5989	  73.3560	   0.0000	
 42.8307	  74.9392	   0.0000	
 46.3743	  76.4104	   0.0000	
 42.9036	  78.0701	   0.0000	
 51.1477	  78.0524	   0.0000	
 43.5586	  81.3384	   0.0000	
 50.2821	  82.6336	   0.0000	
 45.4890	  83.8072	   0.0000	
 48.9230	  83.7459	   0.0000	
 46.4289	  91.8092	   0.0000	
 43.4918	  60.4289	   0.0000	
 39.6923	  58.3422	   0.0000	
 43.7868	  63.1834	   0.0000	
 37.9442	  61.8684	   0.0000	
 41.9930	  65.4417	   0.0000	
 36.9725	  65.1957	   0.0000	
 40.8976	  67.9622	   0.0000	
 38.8738	  69.7841	   0.0000	
 40.6049	  71.9495	   0.0000	
 41.5564	  74.1613	   0.0000	
 41.5696	  75.8536	   0.0000	
 45.3409	  77.4761	   0.0000	
 42.2613	  79.5468	   0.0000	
 48.9657	  78.5433	   0.0000	
 44.4891	  84.0114	   0.0000	
 46.9783	  80.0111	   0.0000	
 47.0694	  86.4016	   0.0000	
 47.3717	  81.7796	   0.0000	
 41.5922	  90.9423	   0.0000	
 41.4974	  59.3810	   0.0000	
 38.9338	  58.6278	   0.0000	
 42.1071	  62.3846	   0.0000	
 36.8368	  61.3472	   0.0000	
 40.2597	  65.1593	   0.0000	
 36.1234	  65.2756	   0.0000	
 39.1937	  68.3956	   0.0000	
 37.5443	  70.4159	   0.0000	
 39.1311	  72.5902	   0.0000	
 40.2798	  74.7955	   0.0000	
 40.3977	  76.3536	   0.0000	
 44.2175	  77.2968	   0.0000	
 41.2686	  79.6640	   0.0000	
 48.5659	  77.6248	   0.0000	
 41.5926	  82.2005	   0.0000	
 50.2836	  79.2057	   0.0000	
 40.9226	  82.6868	   0.0000	
 51.1893	  82.6148	   0.0000	
 39.9376	  87.4491	   0.0000	
 39.0606	  59.8869	   0.0000	
 39.1264	  59.7916	   0.0000	
 39.4681	  62.4165	   0.0000	
 36.0644	  62.6407	   0.0000	
 38.3879	  65.7734	   0.0000	
 35.1544	  66.2725	   0.0000	
 37.3892	  69.2168	   0.0000	
 36.4130	  70.9019	   0.0000	
 37.4793	  73.4351	   0.0000	
 38.9238	  75.6343	   0.0000	
 39.1139	  77.7249	   0.0000	
 43.1675	  78.7955	   0.0000	
 39.9875	  80.9475	   0.0000	
 48.1167	  79.5644	   0.0000	
 40.5860	  83.4897	   0.0000	
 49.7561	  79.2232	   0.0000	
 42.3178	  85.0037	   0.0000	
 45.4566	  80.4961	   0.0000	
 44.6183	  90.6566	   0.0000	
 40.2812	  60.2864	   0.0000	
 36.4565	  60.3070	   0.0000	
 37.4092	  62.0300	   0.0000	
 34.5240	  62.3250	   0.0000	
 36.0276	  65.6581	   0.0000	
 33.4990	  67.1060	   0.0000	
 35.4269	  69.9839	   0.0000	
 34.4026	  72.4463	   0.0000	
 35.7669	  74.4775	   0.0000	
 37.2559	  76.6318	   0.0000	
 37.6416	  78.2455	   0.0000	
 41.7804	  79.5341	   0.0000	
 39.6487	  81.2391	   0.0000	
 46.7811	  78.5600	   0.0000	
 40.8706	  83.0270	   0.0000	
 49.6311	  76.0311	   0.0000	
 39.0629	  86.0798	   0.0000	
 49.8961	  81.0480	   0.0000	
 34.7053	  89.7580	   0.0000	
 37.4794	  59.4247	   0.0000	
 35.4374	  60.8899	   0.0000	
 35.6380	  62.7460	   0.0000	
 32.9396	  63.2921	   0.0000	
 33.4234	  66.3507	   0.0000	
 32.1966	  67.3901	   0.0000	
 32.8413	  70.7150	   0.0000	
 33.1810	  72.6254	   0.0000	
 33.7599	  75.6073	   0.0000	
 35.3191	  77.8772	   0.0000	
 36.4443	  79.6691	   0.0000	
 39.3822	  80.6060	   0.0000	
 38.8524	  83.7428	   0.0000	
 46.0869	  81.5644	   0.0000	
 39.5357	  85.8100	   0.0000	
 51.3534	  79.9173	   0.0000	
 35.8284	  88.5318	   0.0000	
 47.8490	  82.0518	   0.0000	
 43.9712	  81.5490	   0.0000	
 34.5877	  58.9361	   0.0000	
 32.1836	  61.2195	   0.0000	
 32.4309	  64.1006	   0.0000	
 30.4896	  64.9005	   0.0000	
 31.1326	  67.2303	   0.0000	
 29.1468	  69.5223	   0.0000	
 30.4360	  72.6573	   0.0000	
 30.1907	  75.0715	   0.0000	
 31.7209	  77.0884	   0.0000	
 32.4317	  79.4960	   0.0000	
 35.2662	  82.8392	   0.0000	
 37.7699	  83.8098	   0.0000	
 37.6698	  84.8152	   0.0000	
 45.2667	  81.9522	   0.0000	
 39.8776	  84.8144	   0.0000	
 49.5074	  78.5735	   0.0000	
 40.4412	  85.8530	   0.0000	
 45.0960	  77.8086	   0.0000	
 50.3620	  74.6645	   0.0000	
 30.8040	  56.8097	   0.0000	
 28.5826	  61.9936	   0.0000	
 28.8583	  63.4859	   0.0000	
 29.9936	  65.2524	   0.0000	
 26.1882	  67.2588	   0.0000	
 27.3515	  69.0373	   0.0000	
 27.4058	  72.1421	   0.0000	
 28.9137	  74.4637	   0.0000	
 28.4265	  77.8737	   0.0000	
 30.8528	  80.3266	   0.0000	
 30.6387	  81.5387	   0.0000	
 35.1797	  84.1602	   0.0000	
 36.9834	  86.0459	   0.0000	
 41.9420	  85.3570	   0.0000	
 41.2911	  90.5292	   0.0000	
 47.2009	  85.5989	   0.0000	
 42.9629	  89.4826	   0.0000	
 49.4373	  83.0000	   0.0000	
 50.4134	  74.9417	   0.0000	
 26.2757	  57.6582	   0.0000	
 25.0383	  63.5424	   0.0000	
 23.6917	  66.7337	   0.0000	
 25.3155	  71.1743	   0.0000	
 24.6706	  73.2668	   0.0000	
 24.0800	  73.9757	   0.0000	
 24.3459	  75.7442	   0.0000	
 23.2241	  79.7238	   0.0000	
 26.3921	  81.8182	   0.0000	
 24.0864	  86.0358	   0.0000	
 28.6380	  90.4512	   0.0000	
 32.3010	  92.5833	   0.0000	
 36.0078	  93.2620	   0.0000	
 39.8237	  90.8497	   0.0000	
 35.3331	  96.6565	   0.0000	
 47.9723	  90.2463	   0.0000	
 48.4981	  87.7289	   0.0000	
 45.2072	  86.6586	   0.0000	
 57.2138	  75.8236	   0.0000	
 16.7888	  57.6264	   0.0000	
 17.0967	  65.1280	   0.0000	
 20.6960	  67.3653	   0.0000	
 20.3324	  69.9218	   0.0000	
 24.6037	  72.5739	   0.0000	
 23.2822	  71.3365	   0.0000	
 17.4521	  73.7389	   0.0000	
 22.4702	  74.8071	   0.0000	
 19.8674	  77.7072	   0.0000	
 23.5579	  77.8688	   0.0000	
 21.1849	  79.1998	   0.0000	
 27.0936	  83.4199	   0.0000	
 27.8416	  88.4195	   0.0000	
 41.0149	  90.7405	   0.0000	
 23.0041	 102.4258	   0.0000	
 39.7254	 107.6787	   0.0000	
 57.0827	  99.6285	   0.0000	
 54.1662	  96.2399	   0.0000	
 55.8653	  86.4027	   0.0000	
 12.7294	  56.2456	   0.0000	
  9.6211	  68.5438	   0.0000	
 14.5850	  77.4818	   0.0000	
 27.5271	  81.0024	   0.0000	
 25.3241	  79.5869	   0.0000	
 14.8722	  77.0831	   0.0000	
 20.1124	  78.2728	   0.0000	
 13.9372	  82.6868	   0.0000	
 18.7984	  86.5689	   0.0000	
  7.8142	  93.6699	   0.0000	
 20.9706	 101.3333	   0.0000	
 12.1183	 103.9187	   0.0000	
 15.5210	 113.2187	   0.0000	
 17.0498	 124.9732	   0.0000	
 36.6642	 125.2965	   0.0000	
  6.7415	 131.9273	   0.0000	
 29.3301	 126.8718	   0.0000	
 76.4843	 103.3770	   0.0000	
 73.8743	  81.2778	   0.0000	
  0.3492	  51.1042	   0.0000	
 14.0399	  62.6293	   0.0000	
 18.3092	  67.0411	   0.0000	
 23.1693	  75.5234	   0.0000	
 10.7462	  78.6075	   0.0000	
  1.6806	  85.7345	   0.0000	
  3.1713	  88.2199	   0.0000	
  4.7308	  92.2611	   0.0000	
  3.3153	  95.8089	   0.0000	
  0.2507	  97.4877	   0.0000	
  2.1474	  98.6122	   0.0000	
  6.1614	 103.5262	   0.0000	
 -1.2817	 105.4312	   0.0000	
  9.7300	 108.6063	   0.0000	
-21.2684	 105.6389	   0.0000	
 28.2461	 114.7850	   0.0000	
  8.8352	 121.6340	   0.0000	
 18.7065	 123.7670	   0.0000	
 61.3533	 107.0503	   0.0000	
 -0.0000	  -0.0000	   0.0000	
  0.0000	   0.0000	   0.0000	
 -0.0000	   0.0000	   0.0000	
 -0.0000	   0.0000	   0.0000	
  0.0000	  -0.0000	   0.0000	
 -0.0000	   0.0000	   0.0000	
  0.0000	   0.0000	   0.0000	
  0.0000	  -0.0000	   0.0000	
 -0.0000	  -0.0000	   0.0000	
  0.0000	   0.0000	   0.0000	
  0.0000	   0.0000	   0.0000	
  0.0000	  -0.0000	   0.0000	
 -0.0000	   0.0000	   0.0000	
 -0.0000	   0.0000	   0.0000	
 -0.0000	  -0.0000	   0.0000	
 -0.0000	  -0.0000	   0.0000	
  0.0000	  -0.0000	   0.0000	
 -0.0000	  -0.0000	   0.0000	
  0.0000	   0.0000	   0.0000	
 50.0000	  50.0000	   0.0000	
 50.0000	  -0.0000	   0.0000	
 77.7323	  47.8359	   0.0000	
 47.9165	  17.6782	   0.0000	
 24.0552	  62.8235	   0.0000	
 59.0916	  37.5909	   0.0000	
 85.9733	  38.6573	   0.0000	
 77.3298	  59.6957	   0.0000	
 64.3134	  60.5361	   0.0000	
 74.6380	  73.3915	   0.0000	
 36.4538	  72.0187	   0.0000	
 56.3794	  76.8868	   0.0000	
 56.1261	  59.8774	   0.0000	
 70.0477	  94.9487	   0.0000	
 45.4580	  67.5678	   0.0000	
 58.6037	  87.2513	   0.0000	
 51.0386	  58.0842	   0.0000	
 54.9620	  83.3649	   0.0000	
 44.2945	  62.0659	   0.0000	
 55.3442	  81.5980	   0.0000	
 45.0255	  58.7876	   0.0000	
 51.4856	  77.6027	   0.0000	
 42.9187	  58.9265	   0.0000	
 50.0283	  75.5997	   0.0000	
 38.2000	  60.0097	   0.0000	
 57.2233	  77.2411	   0.0000	
 38.8327	  57.4780	   0.0000	
 44.4573	  69.3629	   0.0000	
 33.7505	  56.3878	   0.0000	
 50.4961	  69.5848	   0.0000	
 30.5163	  54.8107	   0.0000	
 54.1131	  69.3174	   0.0000	
 23.0582	  53.6809	   0.0000	
 59.3257	  67.4578	   0.0000	
 16.5330	  49.6508	   0.0000	
 70.2582	  66.7897	   0.0000	
  0.0144	  43.4435	   0.0000	
 79.4102	  59.9692	   0.0000	
-20.6137	  38.0919	   0.0000	
132.6546	  74.9305	   0.0000	
 -0.0000	   0.0000	   0.0000	
 -0.0000	  -0.0000	   0.0000	
 53.8939	  50.0000	   0.0000	
 94.2994	 169.5252	   0.0000	
 38.4871	  51.8399	   0.0000	
 55.4999	 150.0627	   0.0000	
 42.5778	  52.0510	   0.0000	
 29.9412	 130.9744	   0.0000	
 34.1698	  52.0650	   0.0000	
 23.7939	 120.2520	   0.0000	
 44.4043	  50.1700	   0.0000	
 18.5624	 111.7080	   0.0000	
 44.6464	  49.9579	   0.0000	
 19.4469	 107.4488	   0.0000	
 43.7573	  49.9633	   0.0000	
 20.6879	 102.5692	   0.0000	
 42.0134	  50.9659	   0.0000	
 23.0031	  99.0278	   0.0000	
 42.4722	  50.2622	   0.0000	
 22.0154	  93.8066	   0.0000	
 42.4308	  49.2374	   0.0000	
 20.7547	  87.8454	   0.0000	
 38.8597	  49.5311	   0.0000	
 33.9631	  88.1684	   0.0000	
 44.6374	  46.2929	   0.0000	
 24.4306	  80.2573	   0.0000	
 39.5835	  46.8547	   0.0000	
 31.5848	  78.4227	   0.0000	
 40.6101	  44.1770	   0.0000	
 31.9461	  73.4086	   0.0000	
 40.8404	  39.9094	   0.0000	
 33.4964	  67.8766	   0.0000	
 42.9848	  35.1141	   0.0000	
 36.6444	  60.4056	   0.0000	
 42.9916	  29.9113	   0.0000	
 35.2584	  49.4092	   0.0000	
 22.8641	  26.7492	   0.0000	
 68.9397	  44.8704	   0.0000	
 50.1850	   4.8827	   0.0000	
 52.3359	  17.5583	   0.0000	
 40.6997	  -1.9762	   0.0000	
 -4.0253	  -4.1501	   0.0000	
 -0.0000	   0.0000	   0.0000	
 -0.0000	  -0.0000	   0.0000	
 47.2693	  50.0000	   0.0000	
-49.8227	  61.8979	   0.0000	
 50.9186	  48.7694	   0.0000	
-13.6132	  64.0495	   0.0000	
 43.1065	  49.5439	   0.0000	
 -2.6531	  64.1687	   0.0000	
 40.7061	  51.0982	   0.0000	
  4.1045	  64.0063	   0.0000	
 43.9592	  50.8034	   0.0000	
  4.9440	  62.8586	   0.0000	
 42.2551	  51.4307	   0.0000	
  7.6051	  62.0985	   0.0000	
 43.9324	  51.6615	   0.0000	
  7.6972	  61.2412	   0.0000	
 45.4045	  51.8919	   0.0000	
  8.1226	  60.0736	   0.0000	
 43.1139	  52.8212	   0.0000	
 12.8649	  59.0747	   0.0000	
 42.3144	  54.2155	   0.0000	
 17.2463	  59.1219	   0.0000	
 43.4501	  54.5884	   0.0000	
 14.5568	  57.7040	   0.0000	
 46.0770	  55.2980	   0.0000	
 15.0096	  55.9876	   0.0000	
 51.4872	  56.0446	   0.0000	
 15.5126	  54.5011	   0.0000	
 48.5509	  58.5602	   0.0000	
 11.7929	  52.8583	   0.0000	
 53.0492	  60.5265	   0.0000	
 10.7169	  52.1994	   0.0000	
 62.8927	  62.3427	   0.0000	
 -1.0015	  49.2747	   0.0000	
 62.2278	  63.9650	   0.0000	
  8.9342	  46.7632	   0.0000	
 79.6949	  68.7854	   0.0000	
 12.1402	  45.3847	   0.0000	
 81.7696	  73.5218	   0.0000	
 -2.0926	  49.0114	   0.0000	
 53.6039	  76.7257	   0.0000	
  0.3366	  55.9240	   0.0000	
 17.0452	  77.3283	   0.0000	
 14.4455	  60.3799	   0.0000	
 43.1384	  50.0000	   0.0000	
  8.0750	  52.1676	   0.0000	
 38.4354	  49.7723	   0.0000	
 -2.3039	  56.7707	   0.0000	
 37.2605	  50.7748	   0.0000	
  8.2006	  56.8259	   0.0000	
 40.1877	  50.6616	   0.0000	
  5.5349	  57.5109	   0.0000	
 37.9884	  50.4692	   0.0000	
  6.9801	  58.0357	   0.0000	
 39.9834	  51.1856	   0.0000	
  8.2473	  58.4045	   0.0000	
 39.0801	  51.1291	   0.0000	
 11.3341	  57.5913	   0.0000	
 37.9467	  51.5237	   0.0000	
  9.8282	  59.5496	   0.0000	
 39.9230	  52.2597	   0.0000	
 13.0915	  59.1076	   0.0000	
 34.4395	  51.4569	   0.0000	
 16.0353	  58.5697	   0.0000	
 40.8867	  52.2585	   0.0000	
 13.6490	  58.7224	   0.0000	
 37.8980	  52.3325	   0.0000	
 15.6550	  58.2605	   0.0000	
 34.5442	  53.0440	   0.0000	
 15.9194	  59.5345	   0.0000	
 40.3737	  54.7454	   0.0000	
 16.1075	  60.0838	   0.0000	
 36.0288	  54.9172	   0.0000	
 18.3733	  59.6114	   0.0000	
 36.5341	  57.5006	   0.0000	
 15.2070	  62.8322	   0.0000	
 35.9300	  61.2340	   0.0000	
 13.6872	  65.8582	   0.0000	
 32.1437	  66.0910	   0.0000	
 14.6108	  69.2219	   0.0000	
 31.5266	  73.4097	   0.0000	
 27.8954	  66.2461	   0.0000	
 31.5566	  85.0699	   0.0000	
 21.8750	  73.3585	   0.0000	
 18.4946	  85.2467	   0.0000	
 19.7514	  73.0639	   0.0000	
 40.2983	  50.0000	   0.0000	
  0.5239	  45.9494	   0.0000	
 42.1144	  50.4956	   0.0000	
  1.7672	  45.9021	   0.0000	
 41.4354	  50.6001	   0.0000	
  3.6356	  45.4153	   0.0000	
 40.5020	  50.3814	   0.0000	
  7.5794	  44.8807	   0.0000	
 40.6296	  50.0235	   0.0000	
  9.5910	  43.6791	   0.0000	
 40.5830	  49.5215	   0.0000	
  2.2777	  48.1971	   0.0000	
 39.0482	  49.1058	   0.0000	
  9.4179	  44.9325	   0.0000	
 39.3325	  49.5918	   0.0000	
  6.1650	  47.9000	   0.0000	
 38.7873	  49.5438	   0.0000	
  8.6652	  47.4641	   0.0000	
 38.7724	  49.7502	   0.0000	
 10.5097	  47.1009	   0.0000	
 37.4518	  49.6091	   0.0000	
 11.1777	  47.7596	   0.0000	
 39.1802	  50.6591	   0.0000	
  9.9033	  48.5409	   0.0000	
 37.7691	  50.9560	   0.0000	
 12.2409	  48.3770	   0.0000	
 36.7468	  50.5831	   0.0000	
 14.2573	  47.9710	   0.0000	
 37.5004	  51.2614	   0.0000	
 13.3408	  49.0429	   0.0000	
 37.0369	  52.4434	   0.0000	
 14.7066	  49.3254	   0.0000	
 36.4342	  52.3494	   0.0000	
 16.1358	  49.0003	   0.0000	
 34.7839	  52.5927	   0.0000	
 16.2731	  50.6745	   0.0000	
 31.7258	  51.4726	   0.0000	
 22.2376	  50.2700	   0.0000	
 32.2374	  52.0840	   0.0000	
 16.0754	  54.8077	   0.0000	
 23.7302	  50.6546	   0.0000	
 24.3293	  51.4222	   0.0000	
 47.6999	  50.0000	   0.0000	
 -0.0637	  28.0228	   0.0000	
 45.4384	  49.2373	   0.0000	
  0.9055	  29.4458	   0.0000	
 43.4430	  48.5383	   0.0000	
  1.0966	  30.8412	   0.0000	
 43.4691	  48.2511	   0.0000	
  3.0952	  32.1792	   0.0000	
 45.7161	  48.9340	   0.0000	
  4.1337	  33.2606	   0.0000	
 45.0667	  48.0067	   0.0000	
  6.2795	  34.6019	   0.0000	
 40.0919	  44.9753	   0.0000	
  7.5655	  36.0109	   0.0000	
 40.9164	  46.2312	   0.0000	
  6.1264	  37.9709	   0.0000	
 39.6774	  46.1394	   0.0000	
 10.0393	  36.8332	   0.0000	
 38.8824	  47.1754	   0.0000	
 11.0122	  39.4962	   0.0000	
 37.9138	  46.7305	   0.0000	
 12.5326	  40.8337	   0.0000	
 37.1423	  46.8993	   0.0000	
 13.9502	  41.9308	   0.0000	
 35.2120	  46.8738	   0.0000	
 16.1567	  43.5493	   0.0000	
 35.4007	  48.4920	   0.0000	
 15.6662	  46.4607	   0.0000	
 33.3641	  48.4910	   0.0000	
 18.4997	  47.2532	   0.0000	
 32.2298	  49.8204	   0.0000	
 19.9267	  49.3550	   0.0000	
 31.6955	  50.6403	   0.0000	
 20.8753	  50.0806	   0.0000	
 29.3231	  51.3646	   0.0000	
 22.3735	  51.7406	   0.0000	
 27.4919	  53.1031	   0.0000	
 23.7534	  53.5308	   0.0000	
 26.5371	  55.2326	   0.0000	
 26.0422	  53.4708	   0.0000	
 25.2963	  55.1353	   0.0000	
 24.7435	  54.7044	   0.0000	
  0.0000	   0.0000	   0.0000	
  0.0000	   0.0000	   0.0000	
 -0.0000	   0.0000	   0.0000	
  0.0000	  -0.0000	   0.0000	
 -0.0000	   0.0000	   0.0000	
  0.0000	   0.0000	   0.0000	
 -0.0000	   0.0000	   0.0000	
 -0.0000	  -0.0000	   0.0000	
 -0.0000	  -0.0000	   0.0000	
 -0.0000	   0.0000	   0.0000	
 -0.0000	  -0.0000	   0.0000	
 -0.0000	  -0.0000	   0.0000	
 -0.0000	   0.0000	   0.0000	
 -0.0000	  -0.0000	   0.0000	