# vtk DataFile Version 3.0 
Results 
ASCII 
DATASET UNSTRUCTURED_GRID 
POINTS 	    1451 float 
  0.0000	   0.6000	  0.0000	 
  0.0000	   1.2000	  0.0000	 
  0.0000	   1.8000	  0.0000	 
  0.0000	   2.4000	  0.0000	 
  0.0000	   3.0000	  0.0000	 
  0.0000	   3.6000	  0.0000	 
  0.0000	   4.2000	  0.0000	 
  0.0000	   4.8000	  0.0000	 
  0.0000	   5.4000	  0.0000	 
  0.0000	   6.0000	  0.0000	 
  0.0000	   6.6000	  0.0000	 
  0.0000	   7.2000	  0.0000	 
  0.0000	   7.8000	  0.0000	 
  0.0000	   8.4000	  0.0000	 
  0.0000	   9.0000	  0.0000	 
  0.0000	   9.6000	  0.0000	 
  0.0000	  10.2000	  0.0000	 
  0.0000	  10.8000	  0.0000	 
  0.0000	  11.4000	  0.0000	 
  0.2250	   0.8475	  0.0000	 
  0.2250	   1.4200	  0.0000	 
  0.2250	   1.9925	  0.0000	 
  0.2250	   2.5650	  0.0000	 
  0.2250	   3.1375	  0.0000	 
  0.2250	   3.7100	  0.0000	 
  0.2250	   4.2825	  0.0000	 
  0.2250	   4.8550	  0.0000	 
  0.2250	   5.4275	  0.0000	 
  0.2250	   6.0000	  0.0000	 
  0.2250	   6.5725	  0.0000	 
  0.2250	   7.1450	  0.0000	 
  0.2250	   7.7175	  0.0000	 
  0.2250	   8.2900	  0.0000	 
  0.2250	   8.8625	  0.0000	 
  0.2250	   9.4350	  0.0000	 
  0.2250	  10.0075	  0.0000	 
  0.2250	  10.5800	  0.0000	 
  0.2250	  11.1525	  0.0000	 
  0.4500	   1.0950	  0.0000	 
  0.4500	   1.6400	  0.0000	 
  0.4500	   2.1850	  0.0000	 
  0.4500	   2.7300	  0.0000	 
  0.4500	   3.2750	  0.0000	 
  0.4500	   3.8200	  0.0000	 
  0.4500	   4.3650	  0.0000	 
  0.4500	   4.9100	  0.0000	 
  0.4500	   5.4550	  0.0000	 
  0.4500	   6.0000	  0.0000	 
  0.4500	   6.5450	  0.0000	 
  0.4500	   7.0900	  0.0000	 
  0.4500	   7.6350	  0.0000	 
  0.4500	   8.1800	  0.0000	 
  0.4500	   8.7250	  0.0000	 
  0.4500	   9.2700	  0.0000	 
  0.4500	   9.8150	  0.0000	 
  0.4500	  10.3600	  0.0000	 
  0.4500	  10.9050	  0.0000	 
  0.6750	   1.3425	  0.0000	 
  0.6750	   1.8600	  0.0000	 
  0.6750	   2.3775	  0.0000	 
  0.6750	   2.8950	  0.0000	 
  0.6750	   3.4125	  0.0000	 
  0.6750	   3.9300	  0.0000	 
  0.6750	   4.4475	  0.0000	 
  0.6750	   4.9650	  0.0000	 
  0.6750	   5.4825	  0.0000	 
  0.6750	   6.0000	  0.0000	 
  0.6750	   6.5175	  0.0000	 
  0.6750	   7.0350	  0.0000	 
  0.6750	   7.5525	  0.0000	 
  0.6750	   8.0700	  0.0000	 
  0.6750	   8.5875	  0.0000	 
  0.6750	   9.1050	  0.0000	 
  0.6750	   9.6225	  0.0000	 
  0.6750	  10.1400	  0.0000	 
  0.6750	  10.6575	  0.0000	 
  0.9000	   1.5900	  0.0000	 
  0.9000	   2.0800	  0.0000	 
  0.9000	   2.5700	  0.0000	 
  0.9000	   3.0600	  0.0000	 
  0.9000	   3.5500	  0.0000	 
  0.9000	   4.0400	  0.0000	 
  0.9000	   4.5300	  0.0000	 
  0.9000	   5.0200	  0.0000	 
  0.9000	   5.5100	  0.0000	 
  0.9000	   6.0000	  0.0000	 
  0.9000	   6.4900	  0.0000	 
  0.9000	   6.9800	  0.0000	 
  0.9000	   7.4700	  0.0000	 
  0.9000	   7.9600	  0.0000	 
  0.9000	   8.4500	  0.0000	 
  0.9000	   8.9400	  0.0000	 
  0.9000	   9.4300	  0.0000	 
  0.9000	   9.9200	  0.0000	 
  0.9000	  10.4100	  0.0000	 
  1.1250	   1.8375	  0.0000	 
  1.1250	   2.3000	  0.0000	 
  1.1250	   2.7625	  0.0000	 
  1.1250	   3.2250	  0.0000	 
  1.1250	   3.6875	  0.0000	 
  1.1250	   4.1500	  0.0000	 
  1.1250	   4.6125	  0.0000	 
  1.1250	   5.0750	  0.0000	 
  1.1250	   5.5375	  0.0000	 
  1.1250	   6.0000	  0.0000	 
  1.1250	   6.4625	  0.0000	 
  1.1250	   6.9250	  0.0000	 
  1.1250	   7.3875	  0.0000	 
  1.1250	   7.8500	  0.0000	 
  1.1250	   8.3125	  0.0000	 
  1.1250	   8.7750	  0.0000	 
  1.1250	   9.2375	  0.0000	 
  1.1250	   9.7000	  0.0000	 
  1.1250	  10.1625	  0.0000	 
  1.3500	   2.0850	  0.0000	 
  1.3500	   2.5200	  0.0000	 
  1.3500	   2.9550	  0.0000	 
  1.3500	   3.3900	  0.0000	 
  1.3500	   3.8250	  0.0000	 
  1.3500	   4.2600	  0.0000	 
  1.3500	   4.6950	  0.0000	 
  1.3500	   5.1300	  0.0000	 
  1.3500	   5.5650	  0.0000	 
  1.3500	   6.0000	  0.0000	 
  1.3500	   6.4350	  0.0000	 
  1.3500	   6.8700	  0.0000	 
  1.3500	   7.3050	  0.0000	 
  1.3500	   7.7400	  0.0000	 
  1.3500	   8.1750	  0.0000	 
  1.3500	   8.6100	  0.0000	 
  1.3500	   9.0450	  0.0000	 
  1.3500	   9.4800	  0.0000	 
  1.3500	   9.9150	  0.0000	 
  1.5750	   2.3325	  0.0000	 
  1.5750	   2.7400	  0.0000	 
  1.5750	   3.1475	  0.0000	 
  1.5750	   3.5550	  0.0000	 
  1.5750	   3.9625	  0.0000	 
  1.5750	   4.3700	  0.0000	 
  1.5750	   4.7775	  0.0000	 
  1.5750	   5.1850	  0.0000	 
  1.5750	   5.5925	  0.0000	 
  1.5750	   6.0000	  0.0000	 
  1.5750	   6.4075	  0.0000	 
  1.5750	   6.8150	  0.0000	 
  1.5750	   7.2225	  0.0000	 
  1.5750	   7.6300	  0.0000	 
  1.5750	   8.0375	  0.0000	 
  1.5750	   8.4450	  0.0000	 
  1.5750	   8.8525	  0.0000	 
  1.5750	   9.2600	  0.0000	 
  1.5750	   9.6675	  0.0000	 
  1.8000	   2.5800	  0.0000	 
  1.8000	   2.9600	  0.0000	 
  1.8000	   3.3400	  0.0000	 
  1.8000	   3.7200	  0.0000	 
  1.8000	   4.1000	  0.0000	 
  1.8000	   4.4800	  0.0000	 
  1.8000	   4.8600	  0.0000	 
  1.8000	   5.2400	  0.0000	 
  1.8000	   5.6200	  0.0000	 
  1.8000	   6.0000	  0.0000	 
  1.8000	   6.3800	  0.0000	 
  1.8000	   6.7600	  0.0000	 
  1.8000	   7.1400	  0.0000	 
  1.8000	   7.5200	  0.0000	 
  1.8000	   7.9000	  0.0000	 
  1.8000	   8.2800	  0.0000	 
  1.8000	   8.6600	  0.0000	 
  1.8000	   9.0400	  0.0000	 
  1.8000	   9.4200	  0.0000	 
  2.0250	   2.8275	  0.0000	 
  2.0250	   3.1800	  0.0000	 
  2.0250	   3.5325	  0.0000	 
  2.0250	   3.8850	  0.0000	 
  2.0250	   4.2375	  0.0000	 
  2.0250	   4.5900	  0.0000	 
  2.0250	   4.9425	  0.0000	 
  2.0250	   5.2950	  0.0000	 
  2.0250	   5.6475	  0.0000	 
  2.0250	   6.0000	  0.0000	 
  2.0250	   6.3525	  0.0000	 
  2.0250	   6.7050	  0.0000	 
  2.0250	   7.0575	  0.0000	 
  2.0250	   7.4100	  0.0000	 
  2.0250	   7.7625	  0.0000	 
  2.0250	   8.1150	  0.0000	 
  2.0250	   8.4675	  0.0000	 
  2.0250	   8.8200	  0.0000	 
  2.0250	   9.1725	  0.0000	 
  2.2500	   3.0750	  0.0000	 
  2.2500	   3.4000	  0.0000	 
  2.2500	   3.7250	  0.0000	 
  2.2500	   4.0500	  0.0000	 
  2.2500	   4.3750	  0.0000	 
  2.2500	   4.7000	  0.0000	 
  2.2500	   5.0250	  0.0000	 
  2.2500	   5.3500	  0.0000	 
  2.2500	   5.6750	  0.0000	 
  2.2500	   6.0000	  0.0000	 
  2.2500	   6.3250	  0.0000	 
  2.2500	   6.6500	  0.0000	 
  2.2500	   6.9750	  0.0000	 
  2.2500	   7.3000	  0.0000	 
  2.2500	   7.6250	  0.0000	 
  2.2500	   7.9500	  0.0000	 
  2.2500	   8.2750	  0.0000	 
  2.2500	   8.6000	  0.0000	 
  2.2500	   8.9250	  0.0000	 
  2.4750	   3.3225	  0.0000	 
  2.4750	   3.6200	  0.0000	 
  2.4750	   3.9175	  0.0000	 
  2.4750	   4.2150	  0.0000	 
  2.4750	   4.5125	  0.0000	 
  2.4750	   4.8100	  0.0000	 
  2.4750	   5.1075	  0.0000	 
  2.4750	   5.4050	  0.0000	 
  2.4750	   5.7025	  0.0000	 
  2.4750	   6.0000	  0.0000	 
  2.4750	   6.2975	  0.0000	 
  2.4750	   6.5950	  0.0000	 
  2.4750	   6.8925	  0.0000	 
  2.4750	   7.1900	  0.0000	 
  2.4750	   7.4875	  0.0000	 
  2.4750	   7.7850	  0.0000	 
  2.4750	   8.0825	  0.0000	 
  2.4750	   8.3800	  0.0000	 
  2.4750	   8.6775	  0.0000	 
  2.7000	   3.5700	  0.0000	 
  2.7000	   3.8400	  0.0000	 
  2.7000	   4.1100	  0.0000	 
  2.7000	   4.3800	  0.0000	 
  2.7000	   4.6500	  0.0000	 
  2.7000	   4.9200	  0.0000	 
  2.7000	   5.1900	  0.0000	 
  2.7000	   5.4600	  0.0000	 
  2.7000	   5.7300	  0.0000	 
  2.7000	   6.0000	  0.0000	 
  2.7000	   6.2700	  0.0000	 
  2.7000	   6.5400	  0.0000	 
  2.7000	   6.8100	  0.0000	 
  2.7000	   7.0800	  0.0000	 
  2.7000	   7.3500	  0.0000	 
  2.7000	   7.6200	  0.0000	 
  2.7000	   7.8900	  0.0000	 
  2.7000	   8.1600	  0.0000	 
  2.7000	   8.4300	  0.0000	 
  2.9250	   3.8175	  0.0000	 
  2.9250	   4.0600	  0.0000	 
  2.9250	   4.3025	  0.0000	 
  2.9250	   4.5450	  0.0000	 
  2.9250	   4.7875	  0.0000	 
  2.9250	   5.0300	  0.0000	 
  2.9250	   5.2725	  0.0000	 
  2.9250	   5.5150	  0.0000	 
  2.9250	   5.7575	  0.0000	 
  2.9250	   6.0000	  0.0000	 
  2.9250	   6.2425	  0.0000	 
  2.9250	   6.4850	  0.0000	 
  2.9250	   6.7275	  0.0000	 
  2.9250	   6.9700	  0.0000	 
  2.9250	   7.2125	  0.0000	 
  2.9250	   7.4550	  0.0000	 
  2.9250	   7.6975	  0.0000	 
  2.9250	   7.9400	  0.0000	 
  2.9250	   8.1825	  0.0000	 
  3.1500	   4.0650	  0.0000	 
  3.1500	   4.2800	  0.0000	 
  3.1500	   4.4950	  0.0000	 
  3.1500	   4.7100	  0.0000	 
  3.1500	   4.9250	  0.0000	 
  3.1500	   5.1400	  0.0000	 
  3.1500	   5.3550	  0.0000	 
  3.1500	   5.5700	  0.0000	 
  3.1500	   5.7850	  0.0000	 
  3.1500	   6.0000	  0.0000	 
  3.1500	   6.2150	  0.0000	 
  3.1500	   6.4300	  0.0000	 
  3.1500	   6.6450	  0.0000	 
  3.1500	   6.8600	  0.0000	 
  3.1500	   7.0750	  0.0000	 
  3.1500	   7.2900	  0.0000	 
  3.1500	   7.5050	  0.0000	 
  3.1500	   7.7200	  0.0000	 
  3.1500	   7.9350	  0.0000	 
  3.3750	   4.3125	  0.0000	 
  3.3750	   4.5000	  0.0000	 
  3.3750	   4.6875	  0.0000	 
  3.3750	   4.8750	  0.0000	 
  3.3750	   5.0625	  0.0000	 
  3.3750	   5.2500	  0.0000	 
  3.3750	   5.4375	  0.0000	 
  3.3750	   5.6250	  0.0000	 
  3.3750	   5.8125	  0.0000	 
  3.3750	   6.0000	  0.0000	 
  3.3750	   6.1875	  0.0000	 
  3.3750	   6.3750	  0.0000	 
  3.3750	   6.5625	  0.0000	 
  3.3750	   6.7500	  0.0000	 
  3.3750	   6.9375	  0.0000	 
  3.3750	   7.1250	  0.0000	 
  3.3750	   7.3125	  0.0000	 
  3.3750	   7.5000	  0.0000	 
  3.3750	   7.6875	  0.0000	 
  3.6000	   4.5600	  0.0000	 
  3.6000	   4.7200	  0.0000	 
  3.6000	   4.8800	  0.0000	 
  3.6000	   5.0400	  0.0000	 
  3.6000	   5.2000	  0.0000	 
  3.6000	   5.3600	  0.0000	 
  3.6000	   5.5200	  0.0000	 
  3.6000	   5.6800	  0.0000	 
  3.6000	   5.8400	  0.0000	 
  3.6000	   6.0000	  0.0000	 
  3.6000	   6.1600	  0.0000	 
  3.6000	   6.3200	  0.0000	 
  3.6000	   6.4800	  0.0000	 
  3.6000	   6.6400	  0.0000	 
  3.6000	   6.8000	  0.0000	 
  3.6000	   6.9600	  0.0000	 
  3.6000	   7.1200	  0.0000	 
  3.6000	   7.2800	  0.0000	 
  3.6000	   7.4400	  0.0000	 
  3.8250	   4.8075	  0.0000	 
  3.8250	   4.9400	  0.0000	 
  3.8250	   5.0725	  0.0000	 
  3.8250	   5.2050	  0.0000	 
  3.8250	   5.3375	  0.0000	 
  3.8250	   5.4700	  0.0000	 
  3.8250	   5.6025	  0.0000	 
[...]
POINT_DATA 	    1451 
VECTORS U float 
 50.0000	   0.0000	   0.0000	
 50.0000	   0.0000	   0.0000	
 50.0000	   0.0000	   0.0000	
 50.0000	   0.0000	   0.0000	
 50.0000	  -0.0000	   0.0000	
 50.0000	  -0.0000	   0.0000	
 50.0000	   0.0000	   0.0000	
 50.0000	  -0.0000	   0.0000	
 50.0000	  -0.0000	   0.0000	
 50.0000	   0.0000	   0.0000	
 50.0000	  -0.0000	   0.0000	
 50.0000	  -0.0000	   0.0000	
 50.0000	   0.0000	   0.0000	
 50.0000	   0.0000	   0.0000	
 50.0000	  -0.0000	   0.0000	
 50.0000	  -0.0000	   0.0000	
 50.0000	   0.0000	   0.0000	
 50.0000	   0.0000	   0.0000	
 50.0000	  -0.0000	   0.0000	
 45.5088	  30.6458	   0.0000	
 55.1943	   6.0145	   0.0000	
 47.1507	  33.3563	   0.0000	
 51.7288	  15.7856	   0.0000	
 49.7904	  25.9713	   0.0000	
 47.9835	  34.9244	   0.0000	
 47.6563	  54.1696	   0.0000	
 49.8950	  61.0898	   0.0000	
 49.1372	  66.3698	   0.0000	
 48.4343	  69.7437	   0.0000	
 51.4572	  73.0552	   0.0000	
 49.6657	  66.6234	   0.0000	
 51.9233	  62.7845	   0.0000	
 52.2629	  45.7553	   0.0000	
 49.6807	  37.7171	   0.0000	
 50.4384	  31.7546	   0.0000	
 50.1514	  32.8127	   0.0000	
 49.1927	  30.4837	   0.0000	
 51.0713	  27.7075	   0.0000	
 66.1722	  20.6262	   0.0000	
 26.3917	  40.7318	   0.0000	
 63.0226	  45.7683	   0.0000	
 41.5683	  42.6049	   0.0000	
 46.0873	  58.2363	   0.0000	
 37.2315	  58.4771	   0.0000	
 43.7499	  67.0226	   0.0000	
 46.9309	  72.2412	   0.0000	
 48.4923	  72.9988	   0.0000	
 48.1853	  74.0062	   0.0000	
 49.1220	  75.2023	   0.0000	
 52.6900	  81.9911	   0.0000	
 53.2664	  80.3817	   0.0000	
 62.4384	  76.8117	   0.0000	
 52.6903	  74.2245	   0.0000	
 55.4176	  69.2744	   0.0000	
 48.3701	  58.5293	   0.0000	
 51.8941	  56.6615	   0.0000	
 52.3960	  58.7526	   0.0000	
 44.2618	  49.7011	   0.0000	
 36.7203	  53.6586	   0.0000	
 63.9436	  57.8522	   0.0000	
 34.0254	  66.0029	   0.0000	
 49.2884	  64.6052	   0.0000	
 36.7835	  63.7341	   0.0000	
 44.9278	  63.2849	   0.0000	
 46.9804	  62.1266	   0.0000	
 47.1656	  66.7251	   0.0000	
 46.7353	  68.9906	   0.0000	
 49.6455	  72.4126	   0.0000	
 48.7928	  70.1020	   0.0000	
 51.4873	  78.4826	   0.0000	
 60.0071	  80.5419	   0.0000	
 53.3939	  87.5797	   0.0000	
 53.0284	  91.1007	   0.0000	
 56.7369	  89.6753	   0.0000	
 54.2846	  76.1518	   0.0000	
 45.3016	  78.2589	   0.0000	
 22.7827	  59.5098	   0.0000	
 51.1977	  49.1649	   0.0000	
 45.2227	  78.7044	   0.0000	
 39.9756	  64.3449	   0.0000	
 46.0617	  69.7570	   0.0000	
 36.4687	  63.1244	   0.0000	
 45.7330	  65.8137	   0.0000	
 44.8987	  68.8374	   0.0000	
 46.5906	  71.0810	   0.0000	
 46.1155	  72.2164	   0.0000	
 47.6871	  73.5626	   0.0000	
 49.7808	  77.8686	   0.0000	
 48.0879	  77.0721	   0.0000	
 59.0052	  79.3469	   0.0000	
 52.0596	  87.1290	   0.0000	
 51.2323	  92.6631	   0.0000	
 56.7198	  99.6933	   0.0000	
 59.5117	  98.3548	   0.0000	
 47.7985	  86.1637	   0.0000	
 49.3011	  54.1621	   0.0000	
 34.4580	  65.6508	   0.0000	
 49.2476	  71.8193	   0.0000	
 40.9995	  64.3843	   0.0000	
 47.2595	  65.6425	   0.0000	
 37.5897	  61.8419	   0.0000	
 44.9003	  65.3088	   0.0000	
 43.8871	  66.8369	   0.0000	
 45.5762	  69.7397	   0.0000	
 44.7448	  72.1331	   0.0000	
 47.8460	  74.8185	   0.0000	
 47.1386	  74.0256	   0.0000	
 48.7292	  79.2041	   0.0000	
 54.7117	  76.3866	   0.0000	
 50.1897	  84.8041	   0.0000	
 47.7879	  90.0962	   0.0000	
 51.1908	  92.9592	   0.0000	
 57.7166	  98.8849	   0.0000	
 64.5878	 102.8447	   0.0000	
 43.6654	  62.7607	   0.0000	
 35.7493	  54.9265	   0.0000	
 50.2183	  62.9656	   0.0000	
 41.1926	  57.4062	   0.0000	
 45.2658	  65.2458	   0.0000	
 36.8428	  62.5090	   0.0000	
 44.6940	  65.9205	   0.0000	
 42.0818	  67.9160	   0.0000	
 44.8084	  70.8153	   0.0000	
 43.9035	  71.7893	   0.0000	
 46.0443	  73.9148	   0.0000	
 47.8303	  76.6754	   0.0000	
 45.5907	  76.6990	   0.0000	
 54.7173	  79.5151	   0.0000	
 48.8163	  82.5348	   0.0000	
 47.0399	  83.9948	   0.0000	
 48.2185	  85.2901	   0.0000	
 52.5299	  86.7940	   0.0000	
 54.5408	  97.4174	   0.0000	
 45.7414	  62.6729	   0.0000	
 37.2203	  50.6487	   0.0000	
 49.0975	  65.8903	   0.0000	
 38.3619	  62.1903	   0.0000	
 44.6038	  67.7291	   0.0000	
 36.9363	  63.8370	   0.0000	
 43.5921	  67.8371	   0.0000	
 40.8821	  69.0948	   0.0000	
 43.8077	  71.6228	   0.0000	
 42.7143	  73.8291	   0.0000	
 45.4177	  75.5344	   0.0000	
 45.7644	  76.7701	   0.0000	
 46.3953	  79.9714	   0.0000	
 50.3533	  77.3514	   0.0000	
 49.4891	  85.7930	   0.0000	
 47.5771	  84.1493	   0.0000	
 46.4335	  83.5821	   0.0000	
 50.0979	  84.4202	   0.0000	
 47.2969	  87.7948	   0.0000	
 44.7640	  64.1180	   0.0000	
 37.0966	  57.1533	   0.0000	
 46.6724	  65.6534	   0.0000	
 37.0341	  61.2548	   0.0000	
 44.6543	  65.9512	   0.0000	
 35.8599	  63.6695	   0.0000	
 42.9859	  67.5187	   0.0000	
 39.3647	  68.7228	   0.0000	
 42.8352	  71.4793	   0.0000	
 41.4903	  73.1275	   0.0000	
 44.2941	  75.3229	   0.0000	
 45.1188	  76.4706	   0.0000	
 44.3729	  78.5127	   0.0000	
 50.8470	  78.8977	   0.0000	
 45.0587	  81.3843	   0.0000	
 49.7859	  85.4517	   0.0000	
 46.7552	  84.2196	   0.0000	
 47.5928	  84.5563	   0.0000	
 47.2804	  90.8185	   0.0000	
 43.8035	  62.0914	   0.0000	
 37.3070	  56.0448	   0.0000	
 45.2222	  65.7595	   0.0000	
 36.7685	  60.1722	   0.0000	
 42.8830	  67.2961	   0.0000	
 35.3546	  64.8830	   0.0000	
 41.7567	  69.0487	   0.0000	
 38.0239	  70.2620	   0.0000	
 41.5208	  73.1797	   0.0000	
 40.3693	  75.0547	   0.0000	
 43.0521	  76.6918	   0.0000	
 44.3117	  78.4694	   0.0000	
 43.4315	  79.6065	   0.0000	
 48.5310	  79.4992	   0.0000	
 46.3025	  83.7221	   0.0000	
 45.5334	  81.2092	   0.0000	
 48.5824	  85.6158	   0.0000	
 46.9833	  84.4740	   0.0000	
 41.9906	  89.9505	   0.0000	
 42.2651	  61.0508	   0.0000	
 35.7381	  57.0665	   0.0000	
 44.7765	  64.6947	   0.0000	
 34.0884	  60.5276	   0.0000	
 42.0932	  66.9368	   0.0000	
 33.9765	  64.7322	   0.0000	
 40.5698	  69.0951	   0.0000	
 36.3209	  70.3584	   0.0000	
 40.3184	  72.8077	   0.0000	
 39.0869	  74.6677	   0.0000	
 41.8484	  76.4266	   0.0000	
 42.9481	  77.7971	   0.0000	
 42.9759	  80.0865	   0.0000	
 47.3254	  78.2583	   0.0000	
 44.1045	  82.3832	   0.0000	
 48.9112	  80.9255	   0.0000	
 42.6271	  81.5648	   0.0000	
 49.5922	  85.0309	   0.0000	
 42.1845	  86.4453	   0.0000	
 39.2986	  61.8887	   0.0000	
 37.1831	  57.9299	   0.0000	
 41.6720	  65.2797	   0.0000	
 33.1841	  61.1411	   0.0000	
 40.4935	  67.5931	   0.0000	
 32.7461	  66.1456	   0.0000	
 38.7374	  70.8061	   0.0000	
 35.1164	  71.6625	   0.0000	
 38.6632	  74.6983	   0.0000	
 37.5866	  76.9177	   0.0000	
 40.6435	  78.7427	   0.0000	
 41.8378	  79.8647	   0.0000	
 41.5063	  81.4467	   0.0000	
 47.6156	  80.4708	   0.0000	
 42.3307	  82.4876	   0.0000	
 48.5997	  80.7656	   0.0000	
 44.6591	  83.7494	   0.0000	
 43.1877	  83.2505	   0.0000	
 46.2975	  88.9251	   0.0000	
 40.5330	  61.7825	   0.0000	
 34.1963	  59.3447	   0.0000	
 40.3473	  65.6196	   0.0000	
 31.4729	  60.6419	   0.0000	
 38.3030	  67.4052	   0.0000	
 30.9604	  66.2176	   0.0000	
 37.2793	  70.3739	   0.0000	
 33.1811	  71.9488	   0.0000	
 36.7987	  74.7226	   0.0000	
 36.3725	  76.2713	   0.0000	
 38.7688	  78.2709	   0.0000	
 40.9757	  80.0867	   0.0000	
 40.5444	  81.1981	   0.0000	
 46.2453	  79.8092	   0.0000	
 43.0253	  83.6151	   0.0000	
 47.4580	  79.0253	   0.0000	
 42.0815	  86.5341	   0.0000	
 47.4036	  84.9177	   0.0000	
 37.2205	  87.9325	   0.0000	
 36.0454	  59.2335	   0.0000	
 33.6341	  59.6110	   0.0000	
 38.4326	  65.8381	   0.0000	
 29.7143	  62.8167	   0.0000	
 35.5523	  69.0992	   0.0000	
 29.9045	  67.6534	   0.0000	
 34.2046	  72.4165	   0.0000	
 31.4046	  74.3986	   0.0000	
 35.1151	  76.9755	   0.0000	
 34.3627	  79.3357	   0.0000	
 36.9748	  80.8211	   0.0000	
 38.7787	  82.8117	   0.0000	
 40.2242	  84.6436	   0.0000	
 45.5952	  82.1185	   0.0000	
 40.9166	  85.6758	   0.0000	
 50.0004	  81.4227	   0.0000	
 37.6915	  87.1018	   0.0000	
 47.5277	  82.5615	   0.0000	
 45.7761	  78.8366	   0.0000	
 32.2180	  59.0294	   0.0000	
 31.2322	  59.7311	   0.0000	
 33.6912	  66.2041	   0.0000	
 28.0679	  63.6533	   0.0000	
 33.7309	  68.5061	   0.0000	
 27.4780	  68.5623	   0.0000	
 31.0821	  73.2507	   0.0000	
 29.8808	  74.3195	   0.0000	
 32.6488	  77.2871	   0.0000	
 31.9222	  79.6030	   0.0000	
 35.9151	  82.4056	   0.0000	
 36.1065	  82.6975	   0.0000	
 38.5595	  84.8488	   0.0000	
 45.7182	  83.0192	   0.0000	
 39.6113	  85.8822	   0.0000	
 49.0461	  81.0798	   0.0000	
 41.4648	  87.5531	   0.0000	
 46.1371	  79.6907	   0.0000	
 50.9169	  75.5116	   0.0000	
 27.6764	  57.1322	   0.0000	
 28.1460	  62.1836	   0.0000	
 29.2113	  66.1906	   0.0000	
 28.7004	  66.3937	   0.0000	
 28.0833	  69.7262	   0.0000	
 24.9932	  69.8850	   0.0000	
 28.7079	  72.9783	   0.0000	
 27.3863	  75.2506	   0.0000	
 29.2349	  78.7167	   0.0000	
 28.9488	  81.6820	   0.0000	
 31.8663	  84.5772	   0.0000	
 36.6415	  87.1631	   0.0000	
 36.8370	  85.6907	   0.0000	
 41.7577	  86.3042	   0.0000	
 41.5302	  91.9845	   0.0000	
 46.6191	  87.8649	   0.0000	
 43.0679	  90.4812	   0.0000	
 50.2860	  83.9334	   0.0000	
 52.1718	  75.7239	   0.0000	
 23.9188	  56.9571	   0.0000	
 26.0881	  62.9161	   0.0000	
 21.3548	  67.2228	   0.0000	
 26.3079	  73.3720	   0.0000	
 25.4417	  75.7503	   0.0000	
 25.2909	  75.1388	   0.0000	
 25.1764	  76.6740	   0.0000	
 23.2881	  79.5729	   0.0000	
 25.9906	  82.2898	   0.0000	
 25.1566	  85.0674	   0.0000	
 27.4097	  87.2480	   0.0000	
 31.3505	  90.7369	   0.0000	
 38.6738	  93.4932	   0.0000	
 36.6056	  91.9055	   0.0000	
 32.7331	  99.1163	   0.0000	
 45.9402	  95.7698	   0.0000	
 51.0463	  90.3658	   0.0000	
 45.8157	  87.1504	   0.0000	
 58.6008	  76.1451	   0.0000	
 14.0900	  56.4804	   0.0000	
 12.7549	  63.3700	   0.0000	
 21.5349	  66.8790	   0.0000	
 19.1854	  70.7604	   0.0000	
 25.3307	  74.4020	   0.0000	
 24.8087	  73.1730	   0.0000	
 19.3353	  74.3749	   0.0000	
 21.1333	  75.3715	   0.0000	
 21.8752	  77.3314	   0.0000	
 20.8000	  79.5898	   0.0000	
 24.0152	  82.5064	   0.0000	
 24.8240	  85.0887	   0.0000	
 26.4172	  91.3326	   0.0000	
 42.2015	  95.6842	   0.0000	
 22.9333	 103.4249	   0.0000	
 35.7871	 109.0988	   0.0000	
 51.7358	 101.1560	   0.0000	
 59.6874	  95.9396	   0.0000	
 61.8198	  85.4827	   0.0000	
  8.7377	  55.0189	   0.0000	
  9.2662	  67.9917	   0.0000	
 13.6462	  75.2257	   0.0000	
 27.2843	  80.4531	   0.0000	
 30.6659	  80.9796	   0.0000	
 15.4086	  76.8771	   0.0000	
 19.7746	  81.1433	   0.0000	
 14.7456	  85.2866	   0.0000	
 18.4668	  89.5585	   0.0000	
 11.3126	  94.8536	   0.0000	
 17.9530	  98.4431	   0.0000	
 13.8635	 104.3837	   0.0000	
 11.3614	 112.9117	   0.0000	
 14.1558	 121.4357	   0.0000	
 29.2739	 128.7369	   0.0000	
 11.0631	 133.8787	   0.0000	
 26.1319	 128.3338	   0.0000	
 70.4070	 105.8030	   0.0000	
 75.5995	  81.1086	   0.0000	
 -0.9167	  48.2623	   0.0000	
  6.7443	  56.9063	   0.0000	
 17.8436	  63.3846	   0.0000	
 25.6635	  73.1084	   0.0000	
  3.4578	  77.6965	   0.0000	
  2.0133	  82.3034	   0.0000	
  7.0621	  85.7916	   0.0000	
  0.5911	  89.6620	   0.0000	
  7.8329	  93.2152	   0.0000	
 -1.5491	  96.2274	   0.0000	
  9.4980	  99.0052	   0.0000	
  1.2007	 103.9165	   0.0000	
 -1.0293	 104.4789	   0.0000	
  4.3745	 107.4022	   0.0000	
 -5.7593	 106.2227	   0.0000	
  7.9305	 111.5465	   0.0000	
 15.4338	 113.7419	   0.0000	
 23.7058	 116.0730	   0.0000	
 62.3015	 103.4912	   0.0000	
 -0.0000	  -0.0000	   0.0000	
  0.0000	   0.0000	   0.0000	
 -0.0000	   0.0000	   0.0000	
 -0.0000	   0.0000	   0.0000	
  0.0000	  -0.0000	   0.0000	
 -0.0000	   0.0000	   0.0000	
  0.0000	   0.0000	   0.0000	
  0.0000	  -0.0000	   0.0000	
 -0.0000	  -0.0000	   0.0000	
  0.0000	   0.0000	   0.0000	
  0.0000	   0.0000	   0.0000	
  0.0000	  -0.0000	   0.0000	
 -0.0000	  -0.0000	   0.0000	
 -0.0000	   0.0000	   0.0000	
 -0.0000	  -0.0000	   0.0000	
 -0.0000	  -0.0000	   0.0000	
  0.0000	  -0.0000	   0.0000	
 -0.0000	  -0.0000	   0.0000	
  0.0000	   0.0000	   0.0000	
 50.0000	  50.0000	   0.0000	
 50.0000	  -0.0000	   0.0000	
 74.1482	  48.7119	   0.0000	
 49.4054	  17.7356	   0.0000	
 54.5858	  56.8899	   0.0000	
 56.6940	  36.8053	   0.0000	
 80.7083	  48.6810	   0.0000	
 73.3038	  58.5168	   0.0000	
 66.4823	  60.5484	   0.0000	
 70.6167	  72.3911	   0.0000	
 36.9719	  75.9627	   0.0000	
 57.0496	  79.1899	   0.0000	
 49.5625	  67.3178	   0.0000	
 71.2641	  97.3475	   0.0000	
 46.6166	  68.1551	   0.0000	
 60.5246	  88.4427	   0.0000	
 49.2252	  63.1297	   0.0000	
 53.3005	  82.5964	   0.0000	
 45.8973	  64.1864	   0.0000	
 56.1336	  82.0187	   0.0000	
 46.1838	  61.1790	   0.0000	
 51.4745	  77.4106	   0.0000	
 43.0511	  61.3041	   0.0000	
 51.7300	  76.0503	   0.0000	
 39.4125	  61.1761	   0.0000	
 58.2735	  77.0806	   0.0000	
 39.8661	  58.1861	   0.0000	
 45.7521	  69.4318	   0.0000	
 34.3154	  56.6034	   0.0000	
 52.5952	  69.8061	   0.0000	
 30.1479	  54.6579	   0.0000	
 56.1201	  68.4358	   0.0000	
 21.4071	  53.0640	   0.0000	
 62.0484	  66.6965	   0.0000	
 16.2480	  47.3228	   0.0000	
 71.7128	  64.4613	   0.0000	
 -2.3509	  42.4955	   0.0000	
 85.2992	  59.8921	   0.0000	
-19.0341	  35.5079	   0.0000	
127.9958	  69.0310	   0.0000	
 -0.0000	   0.0000	   0.0000	
 -0.0000	  -0.0000	   0.0000	
 51.0025	  50.0000	   0.0000	
 93.5966	 167.9812	   0.0000	
 46.4189	  49.0064	   0.0000	
 55.4894	 148.4992	   0.0000	
 43.5189	  51.0198	   0.0000	
 31.9915	 130.5714	   0.0000	
 38.6162	  50.1945	   0.0000	
 21.6172	 117.7842	   0.0000	
 42.1666	  49.3845	   0.0000	
 20.1086	 111.1135	   0.0000	
 46.3881	  47.3714	   0.0000	
 18.6441	 105.8494	   0.0000	
 42.7188	  48.3566	   0.0000	
 21.3404	 102.1362	   0.0000	
 43.0757	  48.6592	   0.0000	
 22.0345	  97.9824	   0.0000	
 42.5005	  48.1312	   0.0000	
 21.8368	  93.0609	   0.0000	
 41.5424	  47.6831	   0.0000	
 22.5087	  88.1243	   0.0000	
 38.6827	  47.8176	   0.0000	
 33.7125	  87.8584	   0.0000	
 44.7900	  44.6312	   0.0000	
 24.3769	  79.8270	   0.0000	
 39.9145	  45.2042	   0.0000	
 30.8193	  77.7148	   0.0000	
 40.8038	  42.6608	   0.0000	
 32.2603	  73.2302	   0.0000	
 40.6427	  38.4976	   0.0000	
 34.1390	  67.8042	   0.0000	
 42.1354	  33.8252	   0.0000	
 36.6594	  59.6272	   0.0000	
 38.5449	  29.8181	   0.0000	
 40.7219	  50.9478	   0.0000	
 20.8431	  25.9264	   0.0000	
 69.0214	  45.1956	   0.0000	
 47.2073	   3.8313	   0.0000	
 56.1926	  20.9812	   0.0000	
 34.5898	  -0.5283	   0.0000	
 -3.8837	  -1.0867	   0.0000	
 -0.0000	   0.0000	   0.0000	
 -0.0000	  -0.0000	   0.0000	
 45.1698	  50.0000	   0.0000	
-48.2036	  62.7392	   0.0000	
 52.3404	  50.1039	   0.0000	
-14.3660	  64.7329	   0.0000	
 43.1766	  50.4959	   0.0000	
 -0.8371	  64.9215	   0.0000	
 42.0816	  52.0563	   0.0000	
  5.5940	  64.7557	   0.0000	
 43.4257	  52.1015	   0.0000	
  7.5146	  63.7096	   0.0000	
 42.8917	  52.4839	   0.0000	
  8.2035	  62.7216	   0.0000	
 44.7814	  52.9671	   0.0000	
  8.5275	  61.9738	   0.0000	
 45.1798	  53.0160	   0.0000	
 10.2077	  60.7053	   0.0000	
 43.9352	  53.7077	   0.0000	
 13.7801	  59.5421	   0.0000	
 42.5363	  55.1341	   0.0000	
 17.8690	  59.2799	   0.0000	
 44.4322	  55.3662	   0.0000	
 14.7697	  57.9122	   0.0000	
 46.7947	  56.1707	   0.0000	
 15.9540	  56.4050	   0.0000	
 52.1748	  56.7933	   0.0000	
 16.8867	  54.6667	   0.0000	
 51.4035	  58.8243	   0.0000	
  9.7018	  52.4789	   0.0000	
 54.7691	  60.5056	   0.0000	
 10.1927	  51.5254	   0.0000	
 63.9915	  61.0325	   0.0000	
  2.5569	  47.7759	   0.0000	
 64.3024	  61.9769	   0.0000	
 12.2585	  44.3394	   0.0000	
 78.3805	  65.6767	   0.0000	
 15.5497	  41.6709	   0.0000	
 77.8093	  67.9861	   0.0000	
 -2.6473	  44.5930	   0.0000	
 50.9381	  69.5798	   0.0000	
  1.8112	  50.9179	   0.0000	
 19.2600	  69.8437	   0.0000	
 11.1992	  54.3742	   0.0000	
 44.8369	  50.0000	   0.0000	
  8.9420	  52.3859	   0.0000	
 37.9821	  49.4359	   0.0000	
 -2.8062	  57.2797	   0.0000	
 39.5511	  50.3435	   0.0000	
  6.0448	  57.5064	   0.0000	
 38.7457	  49.9590	   0.0000	
  5.5342	  57.6794	   0.0000	
 38.7466	  50.2540	   0.0000	
  6.7599	  58.1046	   0.0000	
 40.1515	  50.7563	   0.0000	
  7.3738	  58.3342	   0.0000	
 38.9989	  50.7006	   0.0000	
 11.5436	  57.4788	   0.0000	
 39.2933	  51.4355	   0.0000	
  9.1071	  59.2719	   0.0000	
 39.5927	  51.9958	   0.0000	
 12.7796	  58.6903	   0.0000	
 35.5810	  51.5953	   0.0000	
 14.2820	  58.3694	   0.0000	
 41.2754	  52.3787	   0.0000	
 14.3954	  58.4302	   0.0000	
 38.0101	  52.4226	   0.0000	
 16.1265	  57.7661	   0.0000	
 35.9399	  53.5416	   0.0000	
 14.2183	  59.2161	   0.0000	
 40.9817	  55.6283	   0.0000	
 16.2255	  59.9333	   0.0000	
 37.2438	  56.1925	   0.0000	
 17.4641	  59.9568	   0.0000	
 39.6158	  59.8051	   0.0000	
 11.5466	  63.7123	   0.0000	
 37.6922	  63.5910	   0.0000	
 11.6010	  65.9812	   0.0000	
 35.7897	  69.4510	   0.0000	
 13.5149	  68.4104	   0.0000	
 38.5955	  77.3826	   0.0000	
 25.3171	  65.4701	   0.0000	
 35.5878	  88.4437	   0.0000	
 18.5159	  73.5380	   0.0000	
 14.5304	  89.6953	   0.0000	
 21.8519	  74.8053	   0.0000	
 40.2943	  50.0000	   0.0000	
 -0.5400	  45.8516	   0.0000	
 42.1411	  50.4334	   0.0000	
  2.1063	  45.4621	   0.0000	
 41.7013	  50.9296	   0.0000	
  4.0840	  44.8142	   0.0000	
 40.8877	  50.5691	   0.0000	
  7.5817	  44.3222	   0.0000	
 40.9687	  50.3607	   0.0000	
  9.1202	  43.8134	   0.0000	
 40.3849	  49.8303	   0.0000	
  3.4720	  47.5814	   0.0000	
 40.1689	  49.8733	   0.0000	
  8.7909	  45.5500	   0.0000	
 39.7032	  49.7322	   0.0000	
  6.0886	  48.2788	   0.0000	
 39.3635	  49.7913	   0.0000	
  9.1887	  47.6272	   0.0000	
 38.4825	  49.5556	   0.0000	
 10.9866	  47.4264	   0.0000	
 37.9210	  49.7334	   0.0000	
 10.6052	  48.7005	   0.0000	
 39.2083	  50.3824	   0.0000	
 11.2224	  48.7761	   0.0000	
 38.8141	  50.9582	   0.0000	
 12.1298	  49.1212	   0.0000	
 36.6650	  49.9614	   0.0000	
 14.0435	  48.8440	   0.0000	
 37.8089	  50.8522	   0.0000	
 13.9860	  49.6656	   0.0000	
 37.2207	  51.6153	   0.0000	
 15.2866	  49.6853	   0.0000	
 35.3997	  51.2942	   0.0000	
 17.1584	  49.5489	   0.0000	
 35.9000	  52.9124	   0.0000	
 15.8422	  52.7771	   0.0000	
 31.0011	  51.3511	   0.0000	
 22.0831	  52.8002	   0.0000	
 32.4245	  53.4062	   0.0000	
 17.5227	  57.0610	   0.0000	
 16.8229	  51.9469	   0.0000	
 30.8824	  52.9764	   0.0000	
 48.1618	  50.0000	   0.0000	
 -0.2593	  28.3766	   0.0000	
 46.0904	  49.2362	   0.0000	
  1.2895	  29.7984	   0.0000	
 43.9014	  48.4664	   0.0000	
  1.9181	  31.2721	   0.0000	
 43.7727	  48.1739	   0.0000	
  3.3518	  32.8446	   0.0000	
 45.7841	  48.7360	   0.0000	
  5.1191	  33.8002	   0.0000	
 45.4840	  48.0594	   0.0000	
  6.7421	  35.3225	   0.0000	
 40.5662	  45.0536	   0.0000	
  7.6375	  36.8317	   0.0000	
 40.9798	  46.0700	   0.0000	
  7.1610	  38.0119	   0.0000	
 40.3311	  46.3538	   0.0000	
  9.9461	  37.3406	   0.0000	
 39.1723	  46.8679	   0.0000	
 11.0515	  39.5019	   0.0000	
 38.1383	  46.6646	   0.0000	
 12.8721	  40.4711	   0.0000	
 37.4780	  47.4223	   0.0000	
 14.0292	  41.9831	   0.0000	
 35.6837	  47.3505	   0.0000	
 15.9351	  43.4236	   0.0000	
 35.9386	  48.9855	   0.0000	
 15.3509	  46.0549	   0.0000	
 34.0457	  49.1360	   0.0000	
 17.8783	  46.7021	   0.0000	
 32.4110	  50.6486	   0.0000	
 19.7631	  48.6533	   0.0000	
 32.1247	  51.4861	   0.0000	
 20.6075	  49.8700	   0.0000	
 30.3439	  52.5189	   0.0000	
 21.2051	  51.6751	   0.0000	
 27.9469	  53.5755	   0.0000	
 22.8281	  52.9460	   0.0000	
 27.8847	  55.4480	   0.0000	
 25.5947	  52.0686	   0.0000	
 25.0588	  54.5760	   0.0000	
 24.1718	  54.3306	   0.0000	
  0.0000	   0.0000	   0.0000	
  0.0000	   0.0000	   0.0000	
 -0.0000	   0.0000	   0.0000	
  0.0000	  -0.0000	   0.0000	
 -0.0000	   0.0000	   0.0000	
  0.0000	   0.0000	   0.0000	
 -0.0000	   0.0000	   0.0000	
 -0.0000	  -0.0000	   0.0000	
 -0.0000	  -0.0000	   0.0000	
 -0.0000	   0.0000	   0.0000	
 -0.0000	  -0.0000	   0.0000	
 -0.0000	  -0.0000	   0.0000	
 -0.0000	   0.0000	   0.0000	
 -0.0000	  -0.0000	   0.0000	