# vtk DataFile Version 3.0 
Results 
ASCII 
DATASET UNSTRUCTURED_GRID 
POINTS 	    1451 float 
  0.0000	   0.6000	  0.0000	 
  0.0000	   1.2000	  0.0000	 
  0.0000	   1.8000	  0.0000	 
  0.0000	   2.4000	  0.0000	 
  0.0000	   3.0000	  0.0000	 
  0.0000	   3.6000	  0.0000	 
  0.0000	   4.2000	  0.0000	 
  0.0000	   4.8000	  0.0000	 
  0.0000	   5.4000	  0.0000	 
  0.0000	   6.0000	  0.0000	 
  0.0000	   6.6000	  0.0000	 
  0.0000	   7.2000	  0.0000	 
  0.0000	   7.8000	  0.0000	 
  0.0000	   8.4000	  0.0000	 
  0.0000	   9.0000	  0.0000	 
  0.0000	   9.6000	  0.0000	 
  0.0000	  10.2000	  0.0000	 
  0.0000	  10.8000	  0.0000	 
  0.0000	  11.4000	  0.0000	 
  0.2250	   0.8475	  0.0000	 
  0.2250	   1.4200	  0.0000	 
  0.2250	   1.9925	  0.0000	 
  0.2250	   2.5650	  0.0000	 
  0.2250	   3.1375	  0.0000	 
  0.2250	   3.7100	  0.0000	 
  0.2250	   4.2825	  0.0000	 
  0.2250	   4.8550	  0.0000	 
  0.2250	   5.4275	  0.0000	 
  0.2250	   6.0000	  0.0000	 
  0.2250	   6.5725	  0.0000	 
  0.2250	   7.1450	  0.0000	 
  0.2250	   7.7175	  0.0000	 
  0.2250	   8.2900	  0.0000	 
  0.2250	   8.8625	  0.0000	 
  0.2250	   9.4350	  0.0000	 
  0.2250	  10.0075	  0.0000	 
  0.2250	  10.5800	  0.0000	 
  0.2250	  11.1525	  0.0000	 
  0.4500	   1.0950	  0.0000	 
  0.4500	   1.6400	  0.0000	 
  0.4500	   2.1850	  0.0000	 
  0.4500	   2.7300	  0.0000	 
  0.4500	   3.2750	  0.0000	 
  0.4500	   3.8200	  0.0000	 
  0.4500	   4.3650	  0.0000	 
  0.4500	   4.9100	  0.0000	 
  0.4500	   5.4550	  0.0000	 
  0.4500	   6.0000	  0.0000	 
  0.4500	   6.5450	  0.0000	 
  0.4500	   7.0900	  0.0000	 
  0.4500	   7.6350	  0.0000	 
  0.4500	   8.1800	  0.0000	 
  0.4500	   8.7250	  0.0000	 
  0.4500	   9.2700	  0.0000	 
  0.4500	   9.8150	  0.0000	 
  0.4500	  10.3600	  0.0000	 
  0.4500	  10.9050	  0.0000	 
  0.6750	   1.3425	  0.0000	 
  0.6750	   1.8600	  0.0000	 
  0.6750	   2.3775	  0.0000	 
  0.6750	   2.8950	  0.0000	 
  0.6750	   3.4125	  0.0000	 
  0.6750	   3.9300	  0.0000	 
  0.6750	   4.4475	  0.0000	 
  0.6750	   4.9650	  0.0000	 
  0.6750	   5.4825	  0.0000	 
  0.6750	   6.0000	  0.0000	 
  0.6750	   6.5175	  0.0000	 
  0.6750	   7.0350	  0.0000	 
  0.6750	   7.5525	  0.0000	 
  0.6750	   8.0700	  0.0000	 
  0.6750	   8.5875	  0.0000	 
  0.6750	   9.1050	  0.0000	 
  0.6750	   9.6225	  0.0000	 
  0.6750	  10.1400	  0.0000	 
  0.6750	  10.6575	  0.0000	 
  0.9000	   1.5900	  0.0000	 
  0.9000	   2.0800	  0.0000	 
  0.9000	   2.5700	  0.0000	 
  0.9000	   3.0600	  0.0000	 
  0.9000	   3.5500	  0.0000	 
  0.9000	   4.0400	  0.0000	 
  0.9000	   4.5300	  0.0000	 
  0.9000	   5.0200	  0.0000	 
  0.9000	   5.5100	  0.0000	 
  0.9000	   6.0000	  0.0000	 
  0.9000	   6.4900	  0.0000	 
  0.9000	   6.9800	  0.0000	 
  0.9000	   7.4700	  0.0000	 
  0.9000	   7.9600	  0.0000	 
  0.9000	   8.4500	  0.0000	 
  0.9000	   8.9400	  0.0000	 
  0.9000	   9.4300	  0.0000	 
  0.9000	   9.9200	  0.0000	 
  0.9000	  10.4100	  0.0000	 
  1.1250	   1.8375	  0.0000	 
  1.1250	   2.3000	  0.0000	 
  1.1250	   2.7625	  0.0000	 
  1.1250	   3.2250	  0.0000	 
  1.1250	   3.6875	  0.0000	 
  1.1250	   4.1500	  0.0000	 
  1.1250	   4.6125	  0.0000	 
  1.1250	   5.0750	  0.0000	 
  1.1250	   5.5375	  0.0000	 
  1.1250	   6.0000	  0.0000	 
  1.1250	   6.4625	  0.0000	 
  1.1250	   6.9250	  0.0000	 
  1.1250	   7.3875	  0.0000	 
  1.1250	   7.8500	  0.0000	 
  1.1250	   8.3125	  0.0000	 
  1.1250	   8.7750	  0.0000	 
  1.1250	   9.2375	  0.0000	 
  1.1250	   9.7000	  0.0000	 
  1.1250	  10.1625	  0.0000	 
  1.3500	   2.0850	  0.0000	 
  1.3500	   2.5200	  0.0000	 
  1.3500	   2.9550	  0.0000	 
  1.3500	   3.3900	  0.0000	 
  1.3500	   3.8250	  0.0000	 
  1.3500	   4.2600	  0.0000	 
  1.3500	   4.6950	  0.0000	 
  1.3500	   5.1300	  0.0000	 
  1.3500	   5.5650	  0.0000	 
  1.3500	   6.0000	  0.0000	 
  1.3500	   6.4350	  0.0000	 
  1.3500	   6.8700	  0.0000	 
  1.3500	   7.3050	  0.0000	 
  1.3500	   7.7400	  0.0000	 
  1.3500	   8.1750	  0.0000	 
  1.3500	   8.6100	  0.0000	 
  1.3500	   9.0450	  0.0000	 
  1.3500	   9.4800	  0.0000	 
  1.3500	   9.9150	  0.0000	 
  1.5750	   2.3325	  0.0000	 
  1.5750	   2.7400	  0.0000	 
  1.5750	   3.1475	  0.0000	 
  1.5750	   3.5550	  0.0000	 
  1.5750	   3.9625	  0.0000	 
  1.5750	   4.3700	  0.0000	 
  1.5750	   4.7775	  0.0000	 
  1.5750	   5.1850	  0.0000	 
  1.5750	   5.5925	  0.0000	 
  1.5750	   6.0000	  0.0000	 
  1.5750	   6.4075	  0.0000	 
  1.5750	   6.8150	  0.0000	 
  1.5750	   7.2225	  0.0000	 
  1.5750	   7.6300	  0.0000	 
  1.5750	   8.0375	  0.0000	 
  1.5750	   8.4450	  0.0000	 
  1.5750	   8.8525	  0.0000	 
  1.5750	   9.2600	  0.0000	 
  1.5750	   9.6675	  0.0000	 
  1.8000	   2.5800	  0.0000	 
  1.8000	   2.9600	  0.0000	 
  1.8000	   3.3400	  0.0000	 
  1.8000	   3.7200	  0.0000	 
  1.8000	   4.1000	  0.0000	 
  1.8000	   4.4800	  0.0000	 
  1.8000	   4.8600	  0.0000	 
  1.8000	   5.2400	  0.0000	 
  1.8000	   5.6200	  0.0000	 
  1.8000	   6.0000	  0.0000	 
  1.8000	   6.3800	  0.0000	 
  1.8000	   6.7600	  0.0000	 
  1.8000	   7.1400	  0.0000	 
  1.8000	   7.5200	  0.0000	 
  1.8000	   7.9000	  0.0000	 
  1.8000	   8.2800	  0.0000	 
  1.8000	   8.6600	  0.0000	 
  1.8000	   9.0400	  0.0000	 
  1.8000	   9.4200	  0.0000	 
  2.0250	   2.8275	  0.0000	 
  2.0250	   3.1800	  0.0000	 
  2.0250	   3.5325	  0.0000	 
  2.0250	   3.8850	  0.0000	 
  2.0250	   4.2375	  0.0000	 
  2.0250	   4.5900	  0.0000	 
  2.0250	   4.9425	  0.0000	 
  2.0250	   5.2950	  0.0000	 
  2.0250	   5.6475	  0.0000	 
  2.0250	   6.0000	  0.0000	 
  2.0250	   6.3525	  0.0000	 
  2.0250	   6.7050	  0.0000	 
  2.0250	   7.0575	  0.0000	 
  2.0250	   7.4100	  0.0000	 
  2.0250	   7.7625	  0.0000	 
  2.0250	   8.1150	  0.0000	 
  2.0250	   8.4675	  0.0000	 
  2.0250	   8.8200	  0.0000	 
  2.0250	   9.1725	  0.0000	 
  2.2500	   3.0750	  0.0000	 
  2.2500	   3.4000	  0.0000	 
  2.2500	   3.7250	  0.0000	 
  2.2500	   4.0500	  0.0000	 
  2.2500	   4.3750	  0.0000	 
  2.2500	   4.7000	  0.0000	 
  2.2500	   5.0250	  0.0000	 
  2.2500	   5.3500	  0.0000	 
  2.2500	   5.6750	  0.0000	 
  2.2500	   6.0000	  0.0000	 
  2.2500	   6.3250	  0.0000	 
  2.2500	   6.6500	  0.0000	 
  2.2500	   6.9750	  0.0000	 
  2.2500	   7.3000	  0.0000	 
  2.2500	   7.6250	  0.0000	 
  2.2500	   7.9500	  0.0000	 
  2.2500	   8.2750	  0.0000	 
  2.2500	   8.6000	  0.0000	 
  2.2500	   8.9250	  0.0000	 
  2.4750	   3.3225	  0.0000	 
  2.4750	   3.6200	  0.0000	 
  2.4750	   3.9175	  0.0000	 
  2.4750	   4.2150	  0.0000	 
  2.4750	   4.5125	  0.0000	 
  2.4750	   4.8100	  0.0000	 
  2.4750	   5.1075	  0.0000	 
  2.4750	   5.4050	  0.0000	 
  2.4750	   5.7025	  0.0000	 
  2.4750	   6.0000	  0.0000	 
  2.4750	   6.2975	  0.0000	 
  2.4750	   6.5950	  0.0000	 
  2.4750	   6.8925	  0.0000	 
  2.4750	   7.1900	  0.0000	 
  2.4750	   7.4875	  0.0000	 
  2.4750	   7.7850	  0.0000	 
  2.4750	   8.0825	  0.0000	 
  2.4750	   8.3800	  0.0000	 
  2.4750	   8.6775	  0.0000	 
  2.7000	   3.5700	  0.0000	 
  2.7000	   3.8400	  0.0000	 
  2.7000	   4.1100	  0.0000	 
  2.7000	   4.3800	  0.0000	 
  2.7000	   4.6500	  0.0000	 
  2.7000	   4.9200	  0.0000	 
  2.7000	   5.1900	  0.0000	 
  2.7000	   5.4600	  0.0000	 
  2.7000	   5.7300	  0.0000	 
  2.7000	   6.0000	  0.0000	 
  2.7000	   6.2700	  0.0000	 
  2.7000	   6.5400	  0.0000	 
  2.7000	   6.8100	  0.0000	 
  2.7000	   7.0800	  0.0000	 
  2.7000	   7.3500	  0.0000	 
  2.7000	   7.6200	  0.0000	 
  2.7000	   7.8900	  0.0000	 
  2.7000	   8.1600	  0.0000	 
  2.7000	   8.4300	  0.0000	 
  2.9250	   3.8175	  0.0000	 
  2.9250	   4.0600	  0.0000	 
  2.9250	   4.3025	  0.0000	 
  2.9250	   4.5450	  0.0000	 
  2.9250	   4.7875	  0.0000	 
  2.9250	   5.0300	  0.0000	 
  2.9250	   5.2725	  0.0000	 
  2.9250	   5.5150	  0.0000	 
  2.9250	   5.7575	  0.0000	 
  2.9250	   6.0000	  0.0000	 
  2.9250	   6.2425	  0.0000	 
  2.9250	   6.4850	  0.0000	 
  2.9250	   6.7275	  0.0000	 
  2.9250	   6.9700	  0.0000	 
  2.9250	   7.2125	  0.0000	 
  2.9250	   7.4550	  0.0000	 
  2.9250	   7.6975	  0.0000	 
  2.9250	   7.9400	  0.0000	 
  2.9250	   8.1825	  0.0000	 
  3.1500	   4.0650	  0.0000	 
  3.1500	   4.2800	  0.0000	 
  3.1500	   4.4950	  0.0000	 
  3.1500	   4.7100	  0.0000	 
  3.1500	   4.9250	  0.0000	 
  3.1500	   5.1400	  0.0000	 
  3.1500	   5.3550	  0.0000	 
  3.1500	   5.5700	  0.0000	 
  3.1500	   5.7850	  0.0000	 
  3.1500	   6.0000	  0.0000	 
  3.1500	   6.2150	  0.0000	 
  3.1500	   6.4300	  0.0000	 
  3.1500	   6.6450	  0.0000	 
  3.1500	   6.8600	  0.0000	 
  3.1500	   7.0750	  0.0000	 
  3.1500	   7.2900	  0.0000	 
  3.1500	   7.5050	  0.0000	 
  3.1500	   7.7200	  0.0000	 
  3.1500	   7.9350	  0.0000	 
  3.3750	   4.3125	  0.0000	 
  3.3750	   4.5000	  0.0000	 
  3.3750	   4.6875	  0.0000	 
  3.3750	   4.8750	  0.0000	 
  3.3750	   5.0625	  0.0000	 
  3.3750	   5.2500	  0.0000	 
  3.3750	   5.4375	  0.0000	 
  3.3750	   5.6250	  0.0000	 
  3.3750	   5.8125	  0.0000	 
  3.3750	   6.0000	  0.0000	 
  3.3750	   6.1875	  0.0000	 
  3.3750	   6.3750	  0.0000	 
  3.3750	   6.5625	  0.0000	 
  3.3750	   6.7500	  0.0000	 
  3.3750	   6.9375	  0.0000	 
  3.3750	   7.1250	  0.0000	 
  3.3750	   7.3125	  0.0000	 
  3.3750	   7.5000	  0.0000	 
  3.3750	   7.6875	  0.0000	 
  3.6000	   4.5600	  0.0000	 
  3.6000	   4.7200	  0.0000	 
  3.6000	   4.8800	  0.0000	 
  3.6000	   5.0400	  0.0000	 
  3.6000	   5.2000	  0.0000	 
  3.6000	   5.3600	  0.0000	 
  3.6000	   5.5200	  0.0000	 
  3.6000	   5.6800	  0.0000	 
  3.6000	   5.8400	  0.0000	 
  3.6000	   6.0000	  0.0000	 
  3.6000	   6.1600	  0.0000	 
  3.6000	   6.3200	  0.0000	 
  3.6000	   6.4800	  0.0000	 
  3.6000	   6.6400	  0.0000	 
  3.6000	   6.8000	  0.0000	 
  3.6000	   6.9600	  0.0000	 
  3.6000	   7.1200	  0.0000	 
  3.6000	   7.2800	  0.0000	 
  3.6000	   7.4400	  0.0000	 
  3.8250	   4.8075	  0.0000	 
  3.8250	   4.9400	  0.0000	 
  3.8250	   5.0725	  0.0000	 
  3.8250	   5.2050	  0.0000	 
  3.8250	   5.3375	  0.0000	 
  3.8250	   5.4700	  0.0000	 
  3.8250	   5.6025	  0.0000	 
[...]
POINT_DATA 	    1451 
VECTORS U float 
 50.0000	   0.0000	   0.0000	
 50.0000	   0.0000	   0.0000	
 50.0000	   0.0000	   0.0000	
 50.0000	   0.0000	   0.0000	
 50.0000	  -0.0000	   0.0000	
 50.0000	  -0.0000	   0.0000	
 50.0000	   0.0000	   0.0000	
 50.0000	  -0.0000	   0.0000	
 50.0000	  -0.0000	   0.0000	
 50.0000	   0.0000	   0.0000	
 50.0000	  -0.0000	   0.0000	
 50.0000	  -0.0000	   0.0000	
 50.0000	   0.0000	   0.0000	
 50.0000	   0.0000	   0.0000	
 50.0000	  -0.0000	   0.0000	
 50.0000	  -0.0000	   0.0000	
 50.0000	   0.0000	   0.0000	
 50.0000	   0.0000	   0.0000	
 50.0000	  -0.0000	   0.0000	
 49.1081	   6.0767	   0.0000	
 50.3330	   7.6294	   0.0000	
 50.2062	  11.9575	   0.0000	
 49.8104	  18.8910	   0.0000	
 50.0593	  11.1291	   0.0000	
 49.5813	  21.7430	   0.0000	
 49.2631	  26.4639	   0.0000	
 49.1185	  32.8377	   0.0000	
 49.7740	  36.3140	   0.0000	
 50.0901	  37.8605	   0.0000	
 49.6530	  37.3282	   0.0000	
 50.9085	  36.6057	   0.0000	
 50.4194	  30.9355	   0.0000	
 50.5293	  27.3360	   0.0000	
 50.2344	  25.2905	   0.0000	
 49.9849	  17.2894	   0.0000	
 50.1293	  20.0534	   0.0000	
 49.1704	  17.5410	   0.0000	
 50.5361	  16.8577	   0.0000	
 49.1379	  12.1502	   0.0000	
 46.0431	  20.6566	   0.0000	
 44.6644	  33.6868	   0.0000	
 56.1146	  24.7374	   0.0000	
 42.3298	  36.9827	   0.0000	
 46.4128	  40.8075	   0.0000	
 45.1020	  52.8857	   0.0000	
 46.7777	  61.3965	   0.0000	
 48.4581	  65.4992	   0.0000	
 49.1586	  67.7835	   0.0000	
 50.3996	  69.1466	   0.0000	
 51.1369	  68.3514	   0.0000	
 54.7705	  63.9936	   0.0000	
 53.0714	  50.5323	   0.0000	
 50.5267	  49.0992	   0.0000	
 55.9264	  46.1886	   0.0000	
 47.7304	  35.1261	   0.0000	
 52.4871	  37.2107	   0.0000	
 51.0572	  35.6404	   0.0000	
 43.0654	  21.5636	   0.0000	
 39.6373	  44.9784	   0.0000	
 53.9141	  37.0898	   0.0000	
 45.9469	  50.3077	   0.0000	
 43.8720	  50.1773	   0.0000	
 40.6233	  60.9641	   0.0000	
 41.9693	  68.6232	   0.0000	
 45.4139	  71.1641	   0.0000	
 47.6695	  73.5363	   0.0000	
 47.6548	  76.2482	   0.0000	
 49.8387	  80.8092	   0.0000	
 51.0384	  81.2431	   0.0000	
 55.3902	  84.4136	   0.0000	
 60.4301	  80.6371	   0.0000	
 51.6030	  67.4705	   0.0000	
 54.1080	  66.7272	   0.0000	
 56.8793	  64.8939	   0.0000	
 49.3179	  53.8072	   0.0000	
 49.5369	  53.3540	   0.0000	
 24.4296	  47.1125	   0.0000	
 49.5041	  46.2122	   0.0000	
 47.0079	  57.9461	   0.0000	
 43.5786	  63.3289	   0.0000	
 39.0037	  62.5642	   0.0000	
 38.7127	  64.9367	   0.0000	
 41.4423	  65.8283	   0.0000	
 44.7963	  68.4646	   0.0000	
 46.6940	  70.2053	   0.0000	
 47.1971	  71.5937	   0.0000	
 47.5458	  71.8813	   0.0000	
 50.2403	  77.4529	   0.0000	
 53.0321	  77.8386	   0.0000	
 59.8139	  81.7015	   0.0000	
 59.5310	  83.7332	   0.0000	
 52.4300	  80.3062	   0.0000	
 58.2154	  83.3761	   0.0000	
 54.7760	  80.6827	   0.0000	
 53.9144	  68.4539	   0.0000	
 39.9661	  50.9192	   0.0000	
 43.5311	  65.6325	   0.0000	
 41.0593	  71.1818	   0.0000	
 45.4549	  71.6914	   0.0000	
 38.2432	  67.6260	   0.0000	
 39.1237	  65.9898	   0.0000	
 40.8207	  67.9127	   0.0000	
 44.3478	  68.9991	   0.0000	
 45.8171	  70.9749	   0.0000	
 46.2369	  72.8423	   0.0000	
 47.9029	  74.6695	   0.0000	
 47.2546	  73.4802	   0.0000	
 52.2992	  79.6932	   0.0000	
 57.1118	  78.6041	   0.0000	
 58.2932	  84.0352	   0.0000	
 52.3644	  92.0252	   0.0000	
 53.5868	  92.3583	   0.0000	
 58.2351	  97.7085	   0.0000	
 60.6453	  98.9226	   0.0000	
 36.2331	  69.8479	   0.0000	
 42.0049	  77.2833	   0.0000	
 42.9145	  73.1875	   0.0000	
 45.5933	  74.8309	   0.0000	
 39.4057	  68.7846	   0.0000	
 38.8261	  69.2460	   0.0000	
 41.2013	  69.0603	   0.0000	
 43.5235	  71.1668	   0.0000	
 45.1232	  73.1062	   0.0000	
 44.8660	  75.6003	   0.0000	
 46.7851	  78.5719	   0.0000	
 47.9286	  80.3530	   0.0000	
 47.9502	  79.4430	   0.0000	
 56.3951	  85.4121	   0.0000	
 55.5644	  86.0215	   0.0000	
 49.5917	  94.8688	   0.0000	
 51.7864	  99.2820	   0.0000	
 52.9424	 104.0301	   0.0000	
 52.8483	 115.2129	   0.0000	
 36.9182	  64.1793	   0.0000	
 44.8768	  65.9925	   0.0000	
 43.0304	  64.7802	   0.0000	
 45.6396	  67.0233	   0.0000	
 38.6656	  65.6623	   0.0000	
 39.6027	  64.7733	   0.0000	
 40.2182	  67.0190	   0.0000	
 42.6320	  69.7587	   0.0000	
 43.5943	  72.6054	   0.0000	
 44.1891	  74.0339	   0.0000	
 45.3562	  74.8522	   0.0000	
 46.5816	  77.6195	   0.0000	
 48.6201	  79.4476	   0.0000	
 51.2015	  76.7388	   0.0000	
 55.7967	  83.9961	   0.0000	
 48.5330	  85.8033	   0.0000	
 48.3988	  87.1363	   0.0000	
 50.0733	  91.2367	   0.0000	
 45.9543	 100.4443	   0.0000	
 40.6892	  59.7158	   0.0000	
 44.5810	  63.7764	   0.0000	
 42.4290	  63.3986	   0.0000	
 43.1291	  69.4716	   0.0000	
 39.4200	  65.8974	   0.0000	
 38.3526	  67.4781	   0.0000	
 39.1811	  69.7634	   0.0000	
 41.2084	  72.3488	   0.0000	
 42.8258	  74.1124	   0.0000	
 42.8928	  76.2609	   0.0000	
 44.9925	  78.4601	   0.0000	
 44.8032	  78.5441	   0.0000	
 47.0895	  81.7065	   0.0000	
 52.5281	  81.7836	   0.0000	
 50.3755	  79.7882	   0.0000	
 50.8202	  89.3477	   0.0000	
 48.5125	  85.6257	   0.0000	
 47.3208	  85.7744	   0.0000	
 43.1750	  94.3964	   0.0000	
 41.0445	  58.7192	   0.0000	
 43.1321	  63.0526	   0.0000	
 39.0188	  65.2461	   0.0000	
 43.6980	  67.4324	   0.0000	
 37.8883	  66.6066	   0.0000	
 37.3901	  68.0766	   0.0000	
 38.0252	  70.0632	   0.0000	
 40.3664	  72.1321	   0.0000	
 41.3505	  74.7731	   0.0000	
 41.4769	  77.1454	   0.0000	
 43.7134	  79.2786	   0.0000	
 44.8027	  81.0682	   0.0000	
 44.6597	  81.1636	   0.0000	
 50.9409	  82.7018	   0.0000	
 52.8454	  83.7038	   0.0000	
 44.7436	  84.2152	   0.0000	
 51.5300	  89.9586	   0.0000	
 48.9975	  87.0133	   0.0000	
 40.4538	  91.4469	   0.0000	
 39.6282	  59.3378	   0.0000	
 39.2878	  64.8263	   0.0000	
 40.3544	  63.5955	   0.0000	
 41.2842	  67.8306	   0.0000	
 36.5260	  67.4217	   0.0000	
 36.3327	  68.7934	   0.0000	
 37.0754	  70.7028	   0.0000	
 38.6875	  73.6845	   0.0000	
 39.8196	  76.3122	   0.0000	
 40.3047	  77.8909	   0.0000	
 42.5304	  79.1059	   0.0000	
 43.3205	  80.3244	   0.0000	
 44.7812	  82.1002	   0.0000	
 48.3640	  79.8161	   0.0000	
 51.3557	  82.1543	   0.0000	
 48.9162	  85.0801	   0.0000	
 43.2068	  83.3997	   0.0000	
 52.5047	  88.6407	   0.0000	
 44.4922	  89.8704	   0.0000	
 35.8940	  61.8642	   0.0000	
 41.2865	  63.2255	   0.0000	
 37.5740	  63.5163	   0.0000	
 39.1296	  67.8173	   0.0000	
 35.2442	  67.4516	   0.0000	
 35.1746	  69.1797	   0.0000	
 35.4784	  71.3094	   0.0000	
 37.0240	  73.6406	   0.0000	
 38.5944	  75.6146	   0.0000	
 38.4359	  78.1744	   0.0000	
 41.9921	  80.7340	   0.0000	
 42.3178	  81.0169	   0.0000	
 43.5077	  82.3037	   0.0000	
 49.0498	  81.6098	   0.0000	
 48.3447	  80.8904	   0.0000	
 48.3426	  85.5864	   0.0000	
 47.1884	  87.1379	   0.0000	
 42.7781	  86.3425	   0.0000	
 49.5667	  92.8206	   0.0000	
 39.8095	  60.9041	   0.0000	
 37.9363	  63.8047	   0.0000	
 35.3489	  65.3183	   0.0000	
 36.8225	  69.0837	   0.0000	
 33.8441	  69.4109	   0.0000	
 33.7298	  71.1157	   0.0000	
 34.1490	  73.0053	   0.0000	
 35.8053	  75.0572	   0.0000	
 36.4308	  78.0163	   0.0000	
 35.9623	  81.2204	   0.0000	
 39.7039	  84.0540	   0.0000	
 42.0716	  86.1012	   0.0000	
 42.4958	  86.0483	   0.0000	
 47.4717	  84.7295	   0.0000	
 49.1201	  86.0619	   0.0000	
 44.4715	  88.1474	   0.0000	
 45.6724	  92.7900	   0.0000	
 48.6115	  91.0996	   0.0000	
 38.5225	  90.7992	   0.0000	
 35.8194	  57.6252	   0.0000	
 33.4142	  60.0081	   0.0000	
 32.9726	  62.9036	   0.0000	
 34.1160	  67.9506	   0.0000	
 31.7594	  69.7797	   0.0000	
 32.4459	  71.8474	   0.0000	
 32.3089	  74.0971	   0.0000	
 33.1852	  77.7456	   0.0000	
 33.2769	  81.8313	   0.0000	
 36.4697	  81.2829	   0.0000	
 37.7740	  80.1751	   0.0000	
 39.5938	  82.0101	   0.0000	
 42.8223	  84.3560	   0.0000	
 46.8992	  82.1604	   0.0000	
 46.4641	  83.9608	   0.0000	
 45.6443	  87.7880	   0.0000	
 40.7622	  89.6275	   0.0000	
 49.8640	  86.2500	   0.0000	
 50.7444	  79.6046	   0.0000	
 31.1343	  60.1452	   0.0000	
 29.2694	  62.1393	   0.0000	
 28.6384	  65.8250	   0.0000	
 30.9310	  69.4441	   0.0000	
 29.5018	  70.7776	   0.0000	
 29.9720	  73.6502	   0.0000	
 29.3228	  76.3638	   0.0000	
 29.0866	  79.5089	   0.0000	
 34.3244	  79.1231	   0.0000	
 33.0703	  81.2934	   0.0000	
 39.5030	  85.1019	   0.0000	
 36.9381	  83.0208	   0.0000	
 39.9991	  84.7706	   0.0000	
 46.8220	  84.1930	   0.0000	
 43.2496	  87.1213	   0.0000	
 42.5788	  92.0681	   0.0000	
 42.8160	  94.9108	   0.0000	
 47.7994	  87.0685	   0.0000	
 56.7737	  78.5617	   0.0000	
 26.3704	  58.2279	   0.0000	
 22.8537	  64.3888	   0.0000	
 27.0823	  68.3789	   0.0000	
 28.4219	  72.1847	   0.0000	
 26.6554	  74.1130	   0.0000	
 27.2516	  76.3698	   0.0000	
 26.8029	  77.5270	   0.0000	
 32.2176	  75.2496	   0.0000	
 32.4851	  75.8082	   0.0000	
 26.1949	  81.6524	   0.0000	
 34.0801	  87.8314	   0.0000	
 39.5382	  91.7342	   0.0000	
 38.6435	  89.8597	   0.0000	
 41.5525	  90.9462	   0.0000	
 41.7781	  98.1016	   0.0000	
 36.8763	 103.4011	   0.0000	
 41.8276	 101.8430	   0.0000	
 55.6918	  90.8247	   0.0000	
 55.4689	  79.5950	   0.0000	
 19.6874	  54.3959	   0.0000	
 22.6199	  57.9074	   0.0000	
 13.2075	  67.3553	   0.0000	
 22.1883	  80.2924	   0.0000	
 23.9337	  85.3801	   0.0000	
 26.2342	  87.7312	   0.0000	
 32.3871	  86.0493	   0.0000	
 31.9293	  86.0895	   0.0000	
 23.2882	  92.7892	   0.0000	
 29.5992	  90.7756	   0.0000	
 25.8753	  88.0308	   0.0000	
 30.9204	  95.0086	   0.0000	
 41.8828	  99.9931	   0.0000	
 36.4755	  98.1501	   0.0000	
 31.6769	 105.3815	   0.0000	
 35.0302	 108.1561	   0.0000	
 50.6196	  96.9343	   0.0000	
 48.5799	  85.9147	   0.0000	
 66.3114	  72.9046	   0.0000	
  3.4352	  47.4402	   0.0000	
 -1.8915	  54.9324	   0.0000	
 12.1853	  63.3121	   0.0000	
 15.8761	  69.3864	   0.0000	
 21.8641	  73.6337	   0.0000	
 32.8291	  74.5694	   0.0000	
 31.6048	  74.5922	   0.0000	
 17.7996	  79.7279	   0.0000	
 26.8255	  79.6208	   0.0000	
 20.7663	  83.7820	   0.0000	
 30.7507	  90.0614	   0.0000	
 16.4764	  88.9762	   0.0000	
 26.4592	  97.7070	   0.0000	
 43.2887	 101.7458	   0.0000	
 23.1409	 111.0502	   0.0000	
 32.6467	 117.0856	   0.0000	
 35.1064	 110.1994	   0.0000	
 64.9308	 102.7659	   0.0000	
 73.4689	  85.5116	   0.0000	
 -4.5316	  60.2911	   0.0000	
  3.7559	  68.7159	   0.0000	
  8.6402	  74.7276	   0.0000	
 23.0380	  79.4903	   0.0000	
 32.5354	  83.5564	   0.0000	
 27.2639	  82.9700	   0.0000	
 11.2998	  91.1758	   0.0000	
 20.2345	  94.9961	   0.0000	
 17.1692	 101.3016	   0.0000	
 12.9950	 106.2488	   0.0000	
 15.4905	 110.6093	   0.0000	
 21.6356	 118.6545	   0.0000	
  2.4965	 123.5180	   0.0000	
 20.2120	 129.4113	   0.0000	
 14.3361	 143.9966	   0.0000	
  7.8900	 155.6079	   0.0000	
 26.4901	 149.1672	   0.0000	
 57.3132	 131.0997	   0.0000	
 68.6541	 105.4748	   0.0000	
 -2.5870	  31.0737	   0.0000	
  4.2588	  36.9763	   0.0000	
 15.1202	  44.0752	   0.0000	
 25.4841	  51.9314	   0.0000	
  0.5307	  60.6584	   0.0000	
  0.5074	  61.4298	   0.0000	
  8.1437	  65.5790	   0.0000	
  0.6123	  69.3901	   0.0000	
  6.4185	  72.9108	   0.0000	
  0.4520	  75.8600	   0.0000	
  5.9599	  78.7692	   0.0000	
  0.6536	  81.9649	   0.0000	
  6.6857	  85.3113	   0.0000	
 -0.9450	  87.9415	   0.0000	
 -0.2083	  87.1664	   0.0000	
 -6.4208	  91.9085	   0.0000	
 -0.2275	  90.0327	   0.0000	
 22.1945	  86.1144	   0.0000	
 58.4375	  76.0401	   0.0000	
 -0.0000	  -0.0000	   0.0000	
  0.0000	   0.0000	   0.0000	
 -0.0000	   0.0000	   0.0000	
 -0.0000	   0.0000	   0.0000	
  0.0000	  -0.0000	   0.0000	
 -0.0000	   0.0000	   0.0000	
  0.0000	   0.0000	   0.0000	
  0.0000	  -0.0000	   0.0000	
 -0.0000	  -0.0000	   0.0000	
  0.0000	   0.0000	   0.0000	
  0.0000	   0.0000	   0.0000	
  0.0000	  -0.0000	   0.0000	
 -0.0000	   0.0000	   0.0000	
 -0.0000	   0.0000	   0.0000	
 -0.0000	  -0.0000	   0.0000	
 -0.0000	  -0.0000	   0.0000	
  0.0000	  -0.0000	   0.0000	
 -0.0000	  -0.0000	   0.0000	
  0.0000	   0.0000	   0.0000	
 50.0000	  50.0000	   0.0000	
 50.0000	  -0.0000	   0.0000	
 68.4117	  50.0772	   0.0000	
 49.9924	  16.2418	   0.0000	
 86.3580	  50.0509	   0.0000	
 49.9948	  32.6655	   0.0000	
 82.4811	  55.1208	   0.0000	
 52.8501	  49.5129	   0.0000	
 79.6499	  59.7216	   0.0000	
 55.2108	  66.6099	   0.0000	
 50.8663	  79.7498	   0.0000	
 50.0644	  79.1041	   0.0000	
 49.1943	  77.9662	   0.0000	
 77.1458	 104.2954	   0.0000	
 45.1810	  76.5579	   0.0000	
 66.8838	  93.1898	   0.0000	
 46.5027	  72.1878	   0.0000	
 56.6973	  83.6479	   0.0000	
 49.1559	  67.6788	   0.0000	
 54.4974	  79.7712	   0.0000	
 47.8711	  65.8992	   0.0000	
 51.6397	  76.0907	   0.0000	
 44.1579	  65.2217	   0.0000	
 56.5488	  76.8785	   0.0000	
 38.7689	  64.6732	   0.0000	
 63.2893	  77.5172	   0.0000	
 41.5409	  59.0822	   0.0000	
 49.2192	  67.8602	   0.0000	
 34.6087	  57.3421	   0.0000	
 59.9769	  69.5058	   0.0000	
 27.5815	  54.9508	   0.0000	
 66.4671	  68.1906	   0.0000	
 17.5754	  52.5600	   0.0000	
 68.7843	  63.6625	   0.0000	
 18.4705	  41.3806	   0.0000	
 78.4052	  60.4419	   0.0000	
-18.9902	  49.3501	   0.0000	
110.2827	  68.7586	   0.0000	
-10.1398	  24.1312	   0.0000	
108.3007	  49.4459	   0.0000	
 -0.0000	   0.0000	   0.0000	
 -0.0000	  -0.0000	   0.0000	
 50.4684	  50.0000	   0.0000	
 87.6483	 156.7008	   0.0000	
 47.7950	  49.4419	   0.0000	
 52.0495	 139.3688	   0.0000	
 45.8345	  49.0007	   0.0000	
 35.4457	 123.8265	   0.0000	
 45.5405	  47.5871	   0.0000	
 24.5159	 110.5822	   0.0000	
 43.3324	  47.2413	   0.0000	
 25.2616	 104.8697	   0.0000	
 43.7632	  45.9324	   0.0000	
 24.3136	 100.0414	   0.0000	
 43.7467	  45.5376	   0.0000	
 25.6022	  96.7805	   0.0000	
 44.5795	  44.4786	   0.0000	
 25.2546	  92.8421	   0.0000	
 43.4763	  44.0321	   0.0000	
 27.9455	  89.7092	   0.0000	
 40.1810	  44.3997	   0.0000	
 31.2658	  86.4520	   0.0000	
 40.5176	  42.9328	   0.0000	
 36.3421	  83.7969	   0.0000	
 46.1439	  39.5568	   0.0000	
 27.1621	  75.7823	   0.0000	
 40.9107	  39.8970	   0.0000	
 36.1396	  74.4382	   0.0000	
 40.8156	  37.0209	   0.0000	
 38.5833	  69.2577	   0.0000	
 38.7803	  33.1374	   0.0000	
 39.9727	  63.2701	   0.0000	
 41.1971	  27.5392	   0.0000	
 45.1422	  55.2749	   0.0000	
 23.8769	  26.6083	   0.0000	
 63.8634	  50.4410	   0.0000	
 18.4950	  19.2326	   0.0000	
 68.9062	  38.5634	   0.0000	
 36.2131	   2.7315	   0.0000	
 61.6878	  21.6178	   0.0000	
 25.7803	   0.4801	   0.0000	
 -2.2148	  -1.5096	   0.0000	
 -0.0000	   0.0000	   0.0000	
 -0.0000	  -0.0000	   0.0000	
 55.6970	  50.0000	   0.0000	
-44.2588	  67.3622	   0.0000	
 51.6547	  50.7789	   0.0000	
-12.4898	  68.9264	   0.0000	
 49.1952	  51.1232	   0.0000	
  2.5995	  68.8414	   0.0000	
 46.6574	  51.9817	   0.0000	
 10.1265	  68.4407	   0.0000	
 46.9682	  52.2256	   0.0000	
 12.1161	  67.1128	   0.0000	
 47.4543	  52.6743	   0.0000	
 12.3731	  65.8597	   0.0000	
 46.9929	  53.4447	   0.0000	
 13.7949	  64.3934	   0.0000	
 46.7004	  53.3581	   0.0000	
 15.6795	  62.5734	   0.0000	
 46.2523	  54.1671	   0.0000	
 17.2084	  61.0171	   0.0000	
 45.2273	  54.7893	   0.0000	
 20.2604	  59.9427	   0.0000	
 50.6043	  54.5029	   0.0000	
 15.3596	  58.1975	   0.0000	
 50.7025	  54.9277	   0.0000	
 17.0804	  55.5390	   0.0000	
 54.9439	  55.0054	   0.0000	
 17.7208	  52.8234	   0.0000	
 57.0168	  55.7000	   0.0000	
  9.1940	  49.2110	   0.0000	
 60.3163	  55.9432	   0.0000	
 13.2048	  46.4641	   0.0000	
 61.8871	  53.3113	   0.0000	
 17.1236	  40.3400	   0.0000	
 60.5260	  52.1046	   0.0000	
 22.2021	  35.8382	   0.0000	
 66.3357	  52.2286	   0.0000	
 26.2779	  31.8177	   0.0000	
 63.5550	  51.0374	   0.0000	
  0.9230	  31.8571	   0.0000	
 38.8996	  50.5445	   0.0000	
  2.0993	  37.2663	   0.0000	
 28.5157	  47.9295	   0.0000	
 -0.3287	  39.8218	   0.0000	
 44.6074	  50.0000	   0.0000	
 11.5214	  54.4267	   0.0000	
 45.3696	  50.8305	   0.0000	
 -2.3719	  59.6142	   0.0000	
 43.5303	  51.0477	   0.0000	
  1.5582	  60.1970	   0.0000	
 41.7796	  51.0530	   0.0000	
  5.1908	  59.6567	   0.0000	
 41.9128	  51.5458	   0.0000	
  6.4320	  59.5735	   0.0000	
 42.2913	  52.0712	   0.0000	
  7.1038	  59.6359	   0.0000	
 40.7088	  52.1788	   0.0000	
 10.1930	  58.8732	   0.0000	
 41.2515	  53.0299	   0.0000	
  8.7995	  59.8263	   0.0000	
 42.5452	  53.6412	   0.0000	
 11.0914	  59.0798	   0.0000	
 41.8186	  54.3116	   0.0000	
 13.0387	  58.7811	   0.0000	
 43.7079	  55.6165	   0.0000	
 14.1205	  59.0403	   0.0000	
 43.2441	  56.3467	   0.0000	
 13.0001	  58.9722	   0.0000	
 44.2879	  58.2413	   0.0000	
  8.0209	  60.8327	   0.0000	
 46.1303	  60.6335	   0.0000	
 11.7326	  61.3893	   0.0000	
 45.7853	  62.0897	   0.0000	
 10.5466	  61.6180	   0.0000	
 52.8310	  67.1228	   0.0000	
  6.5273	  63.7898	   0.0000	
 50.2889	  69.7947	   0.0000	
  9.5432	  63.3494	   0.0000	
 49.2824	  73.5024	   0.0000	
 14.4786	  62.2284	   0.0000	
 50.9207	  77.5559	   0.0000	
 19.5043	  59.7962	   0.0000	
 42.4512	  82.7897	   0.0000	
 19.5032	  66.2101	   0.0000	
 22.0948	  83.4407	   0.0000	
 21.9315	  70.6615	   0.0000	
 44.9478	  50.0000	   0.0000	
 -1.2926	  45.7072	   0.0000	
 44.7757	  49.8551	   0.0000	
  2.4239	  44.8817	   0.0000	
 43.9710	  49.8942	   0.0000	
  5.0863	  44.1442	   0.0000	
 42.7311	  49.6029	   0.0000	
  7.9953	  43.3479	   0.0000	
 42.8218	  49.8360	   0.0000	
  6.7522	  44.9688	   0.0000	
 42.7523	  49.8719	   0.0000	
  5.5448	  46.9584	   0.0000	
 41.5820	  49.3795	   0.0000	
  7.0275	  47.2528	   0.0000	
 41.5199	  49.5426	   0.0000	
  7.8929	  48.2957	   0.0000	
 40.9095	  49.5429	   0.0000	
 10.0182	  48.4682	   0.0000	
 39.7667	  49.0120	   0.0000	
 11.2214	  48.8935	   0.0000	
 41.6274	  50.2046	   0.0000	
  9.7100	  50.7471	   0.0000	
 37.9668	  49.0377	   0.0000	
 14.9697	  49.2685	   0.0000	
 39.4283	  50.6202	   0.0000	
 15.0977	  50.2491	   0.0000	
 39.2945	  51.2329	   0.0000	
 13.3917	  51.9312	   0.0000	
 39.5622	  52.9418	   0.0000	
 14.7784	  53.7337	   0.0000	
 38.7302	  53.7260	   0.0000	
 14.7148	  54.8454	   0.0000	
 38.0546	  55.9845	   0.0000	
 14.9295	  57.2885	   0.0000	
 39.4763	  60.6802	   0.0000	
 14.3186	  60.6606	   0.0000	
 35.2507	  62.7413	   0.0000	
 21.5568	  60.6922	   0.0000	
 40.7585	  69.0116	   0.0000	
 17.0424	  64.2630	   0.0000	
 20.3514	  67.0701	   0.0000	
 38.3605	  58.2970	   0.0000	
 51.1372	  50.0000	   0.0000	
  0.7532	  30.6671	   0.0000	
 48.4176	  49.4161	   0.0000	
  2.1729	  32.0664	   0.0000	
 45.4230	  48.7682	   0.0000	
  3.5558	  33.4781	   0.0000	
 44.5364	  48.6766	   0.0000	
  4.8231	  34.8871	   0.0000	
 45.4196	  49.1832	   0.0000	
  7.1916	  35.9125	   0.0000	
 45.3320	  49.2971	   0.0000	
  7.9041	  37.8403	   0.0000	
 42.1279	  47.1873	   0.0000	
  8.8701	  38.9430	   0.0000	
 41.6637	  47.3510	   0.0000	
 10.1301	  39.1646	   0.0000	
 41.5803	  47.8870	   0.0000	
 10.7836	  39.9651	   0.0000	
 40.4223	  47.9552	   0.0000	
 12.1538	  41.2524	   0.0000	
 40.0949	  48.2149	   0.0000	
 13.6547	  42.4119	   0.0000	
 38.9751	  48.1856	   0.0000	
 15.0593	  43.3630	   0.0000	
 38.7825	  48.8092	   0.0000	
 15.5102	  45.2746	   0.0000	
 38.1838	  49.5331	   0.0000	
 15.6119	  47.2693	   0.0000	
 38.0145	  48.9941	   0.0000	
 16.1916	  47.1914	   0.0000	
 36.6831	  49.3252	   0.0000	
 16.5576	  48.0816	   0.0000	
 34.7473	  49.1503	   0.0000	
 22.9375	  46.5439	   0.0000	
 36.8632	  52.0666	   0.0000	
 17.9834	  52.2620	   0.0000	
 33.4989	  51.3535	   0.0000	
 21.9225	  52.2931	   0.0000	
 30.5233	  51.5170	   0.0000	
 23.4723	  54.2093	   0.0000	
 30.7433	  55.9878	   0.0000	
 20.9544	  57.5740	   0.0000	
  0.0000	   0.0000	   0.0000	
  0.0000	   0.0000	   0.0000	
 -0.0000	   0.0000	   0.0000	
  0.0000	  -0.0000	   0.0000	
 -0.0000	   0.0000	   0.0000	
  0.0000	   0.0000	   0.0000	
 -0.0000	   0.0000	   0.0000	
 -0.0000	  -0.0000	   0.0000	
 -0.0000	  -0.0000	   0.0000	
 -0.0000	   0.0000	   0.0000	
 -0.0000	  -0.0000	   0.0000	
 -0.0000	  -0.0000	   0.0000	
 -0.0000	   0.0000	   0.0000	
 -0.0000	  -0.0000	   0.0000	