# vtk DataFile Version 3.0 
Results 
ASCII 
DATASET UNSTRUCTURED_GRID 
POINTS 	     299 float 
  0.0000	   1.5000	  0.0000	 
  0.0000	   3.0000	  0.0000	 
  0.0000	   4.5000	  0.0000	 
  0.0000	   6.0000	  0.0000	 
  0.0000	   7.5000	  0.0000	 
  0.0000	   9.0000	  0.0000	 
  0.0000	  10.5000	  0.0000	 
  0.5625	   2.0156	  0.0000	 
  0.5625	   3.3438	  0.0000	 
  0.5625	   4.6719	  0.0000	 
  0.5625	   6.0000	  0.0000	 
  0.5625	   7.3281	  0.0000	 
  0.5625	   8.6562	  0.0000	 
  0.5625	   9.9844	  0.0000	 
  1.1250	   2.5312	  0.0000	 
  1.1250	   3.6875	  0.0000	 
  1.1250	   4.8438	  0.0000	 
  1.1250	   6.0000	  0.0000	 
  1.1250	   7.1562	  0.0000	 
  1.1250	   8.3125	  0.0000	 
  1.1250	   9.4688	  0.0000	 
  1.6875	   3.0469	  0.0000	 
  1.6875	   4.0312	  0.0000	 
  1.6875	   5.0156	  0.0000	 
  1.6875	   6.0000	  0.0000	 
  1.6875	   6.9844	  0.0000	 
  1.6875	   7.9688	  0.0000	 
  1.6875	   8.9531	  0.0000	 
  2.2500	   3.5625	  0.0000	 
  2.2500	   4.3750	  0.0000	 
  2.2500	   5.1875	  0.0000	 
  2.2500	   6.0000	  0.0000	 
  2.2500	   6.8125	  0.0000	 
  2.2500	   7.6250	  0.0000	 
  2.2500	   8.4375	  0.0000	 
  2.8125	   4.0781	  0.0000	 
  2.8125	   4.7188	  0.0000	 
  2.8125	   5.3594	  0.0000	 
  2.8125	   6.0000	  0.0000	 
  2.8125	   6.6406	  0.0000	 
  2.8125	   7.2812	  0.0000	 
  2.8125	   7.9219	  0.0000	 
  3.3750	   4.5938	  0.0000	 
  3.3750	   5.0625	  0.0000	 
  3.3750	   5.5312	  0.0000	 
  3.3750	   6.0000	  0.0000	 
  3.3750	   6.4688	  0.0000	 
  3.3750	   6.9375	  0.0000	 
  3.3750	   7.4062	  0.0000	 
  3.9375	   5.1094	  0.0000	 
  3.9375	   5.4062	  0.0000	 
  3.9375	   5.7031	  0.0000	 
  3.9375	   6.0000	  0.0000	 
  3.9375	   6.2969	  0.0000	 
  3.9375	   6.5938	  0.0000	 
  3.9375	   6.8906	  0.0000	 
  4.5000	   5.6250	  0.0000	 
  4.5000	   5.7500	  0.0000	 
  4.5000	   5.8750	  0.0000	 
  4.5000	   6.0000	  0.0000	 
  4.5000	   6.1250	  0.0000	 
  4.5000	   6.2500	  0.0000	 
  4.5000	   6.3750	  0.0000	 
  0.0000	   0.0000	  0.0000	 
  0.0000	  12.0000	  0.0000	 
  0.5625	   0.6875	  0.0000	 
  0.5625	  11.3125	  0.0000	 
  1.1250	   1.3750	  0.0000	 
  1.1250	  10.6250	  0.0000	 
  1.6875	   2.0625	  0.0000	 
  1.6875	   9.9375	  0.0000	 
  2.2500	   2.7500	  0.0000	 
  2.2500	   9.2500	  0.0000	 
  2.8125	   3.4375	  0.0000	 
  2.8125	   8.5625	  0.0000	 
  3.3750	   4.1250	  0.0000	 
  3.3750	   7.8750	  0.0000	 
  3.9375	   4.8125	  0.0000	 
  3.9375	   7.1875	  0.0000	 
  4.5000	   5.5000	  0.0000	 
  4.5000	   6.5000	  0.0000	 
  2.8000	   0.0000	  0.0000	 
  2.8000	  12.0000	  0.0000	 
  3.1375	   0.6875	  0.0000	 
  3.1375	  11.3125	  0.0000	 
  3.4750	   1.3750	  0.0000	 
  3.4750	  10.6250	  0.0000	 
  3.8125	   2.0625	  0.0000	 
  3.8125	   9.9375	  0.0000	 
  4.1500	   2.7500	  0.0000	 
  4.1500	   9.2500	  0.0000	 
  4.4875	   3.4375	  0.0000	 
  4.4875	   8.5625	  0.0000	 
  4.8250	   4.1250	  0.0000	 
  4.8250	   7.8750	  0.0000	 
  5.1625	   4.8125	  0.0000	 
  5.1625	   7.1875	  0.0000	 
  5.5000	   5.5000	  0.0000	 
  5.5000	   6.5000	  0.0000	 
  5.6000	   0.0000	  0.0000	 
  5.6000	  12.0000	  0.0000	 
  5.7125	   0.6875	  0.0000	 
  5.7125	  11.3125	  0.0000	 
  5.8250	   1.3750	  0.0000	 
  5.8250	  10.6250	  0.0000	 
  5.9375	   2.0625	  0.0000	 
  5.9375	   9.9375	  0.0000	 
  6.0500	   2.7500	  0.0000	 
  6.0500	   9.2500	  0.0000	 
  6.1625	   3.4375	  0.0000	 
  6.1625	   8.5625	  0.0000	 
  6.2750	   4.1250	  0.0000	 
  6.2750	   7.8750	  0.0000	 
  6.3875	   4.8125	  0.0000	 
  6.3875	   7.1875	  0.0000	 
  6.5000	   5.5000	  0.0000	 
  6.5000	   6.5000	  0.0000	 
  8.4000	   0.0000	  0.0000	 
  8.4000	  12.0000	  0.0000	 
  8.2875	   0.6875	  0.0000	 
  8.2875	  11.3125	  0.0000	 
  8.1750	   1.3750	  0.0000	 
  8.1750	  10.6250	  0.0000	 
  8.0625	   2.0625	  0.0000	 
  8.0625	   9.9375	  0.0000	 
  7.9500	   2.7500	  0.0000	 
  7.9500	   9.2500	  0.0000	 
  7.8375	   3.4375	  0.0000	 
  7.8375	   8.5625	  0.0000	 
  7.7250	   4.1250	  0.0000	 
  7.7250	   7.8750	  0.0000	 
  7.6125	   4.8125	  0.0000	 
  7.6125	   7.1875	  0.0000	 
  7.5000	   5.5000	  0.0000	 
  7.5000	   6.5000	  0.0000	 
 11.2000	   0.0000	  0.0000	 
 11.2000	  12.0000	  0.0000	 
 10.8625	   0.6875	  0.0000	 
 10.8625	  11.3125	  0.0000	 
 10.5250	   1.3750	  0.0000	 
 10.5250	  10.6250	  0.0000	 
 10.1875	   2.0625	  0.0000	 
 10.1875	   9.9375	  0.0000	 
  9.8500	   2.7500	  0.0000	 
  9.8500	   9.2500	  0.0000	 
  9.5125	   3.4375	  0.0000	 
  9.5125	   8.5625	  0.0000	 
  9.1750	   4.1250	  0.0000	 
  9.1750	   7.8750	  0.0000	 
  8.8375	   4.8125	  0.0000	 
  8.8375	   7.1875	  0.0000	 
  8.5000	   5.5000	  0.0000	 
  8.5000	   6.5000	  0.0000	 
 14.0000	   0.0000	  0.0000	 
 14.0000	  12.0000	  0.0000	 
 13.4375	   0.6875	  0.0000	 
 13.4375	  11.3125	  0.0000	 
 12.8750	   1.3750	  0.0000	 
 12.8750	  10.6250	  0.0000	 
 12.3125	   2.0625	  0.0000	 
 12.3125	   9.9375	  0.0000	 
 11.7500	   2.7500	  0.0000	 
 11.7500	   9.2500	  0.0000	 
 11.1875	   3.4375	  0.0000	 
 11.1875	   8.5625	  0.0000	 
 10.6250	   4.1250	  0.0000	 
 10.6250	   7.8750	  0.0000	 
 10.0625	   4.8125	  0.0000	 
 10.0625	   7.1875	  0.0000	 
  9.5000	   5.5000	  0.0000	 
  9.5000	   6.5000	  0.0000	 
  5.5000	   5.5000	  0.0000	 
  5.5000	   6.5000	  0.0000	 
  5.5000	   5.6567	  0.0000	 
  5.5000	   6.3433	  0.0000	 
  5.5000	   5.8133	  0.0000	 
  5.5000	   6.1867	  0.0000	 
  6.5000	   5.5000	  0.0000	 
  6.5000	   6.5000	  0.0000	 
  6.5000	   5.6567	  0.0000	 
  6.5000	   6.3433	  0.0000	 
  6.5000	   5.8133	  0.0000	 
  6.5000	   6.1867	  0.0000	 
  7.5000	   5.5000	  0.0000	 
  7.5000	   6.5000	  0.0000	 
  7.5000	   5.6567	  0.0000	 
  7.5000	   6.3433	  0.0000	 
  7.5000	   5.8133	  0.0000	 
  7.5000	   6.1867	  0.0000	 
  8.5000	   5.5000	  0.0000	 
  8.5000	   6.5000	  0.0000	 
  8.5000	   5.6567	  0.0000	 
  8.5000	   6.3433	  0.0000	 
  8.5000	   5.8133	  0.0000	 
  8.5000	   6.1867	  0.0000	 
  9.5000	   5.5000	  0.0000	 
  9.5000	   6.5000	  0.0000	 
  9.5000	   5.6567	  0.0000	 
  9.5000	   6.3433	  0.0000	 
  9.5000	   5.8133	  0.0000	 
  9.5000	   6.1867	  0.0000	 
  5.5000	   5.9700	  0.0000	 
  5.5000	   6.0000	  0.0000	 
  5.5000	   6.0300	  0.0000	 
  6.5000	   5.9700	  0.0000	 
  6.5000	   6.0000	  0.0000	 
  6.5000	   6.0300	  0.0000	 
  7.5000	   5.9700	  0.0000	 
  7.5000	   6.0000	  0.0000	 
  7.5000	   6.0300	  0.0000	 
  8.5000	   5.9700	  0.0000	 
  8.5000	   6.0000	  0.0000	 
  8.5000	   6.0300	  0.0000	 
  9.5000	   5.9700	  0.0000	 
  9.5000	   6.0000	  0.0000	 
  9.5000	   6.0300	  0.0000	 
 10.0625	   5.1371	  0.0000	 
 10.0625	   6.8629	  0.0000	 
 10.0625	   5.4617	  0.0000	 
 10.0625	   6.5383	  0.0000	 
 10.0625	   5.7862	  0.0000	 
 10.0625	   6.2138	  0.0000	 
 10.6250	   4.6175	  0.0000	 
 10.6250	   7.3825	  0.0000	 
 10.6250	   5.1100	  0.0000	 
 10.6250	   6.8900	  0.0000	 
 10.6250	   5.6025	  0.0000	 
 10.6250	   6.3975	  0.0000	 
 11.1875	   4.0979	  0.0000	 
 11.1875	   7.9021	  0.0000	 
 11.1875	   4.7583	  0.0000	 
 11.1875	   7.2417	  0.0000	 
 11.1875	   5.4188	  0.0000	 
 11.1875	   6.5812	  0.0000	 
 11.7500	   3.5783	  0.0000	 
 11.7500	   8.4217	  0.0000	 
 11.7500	   4.4067	  0.0000	 
 11.7500	   7.5933	  0.0000	 
 11.7500	   5.2350	  0.0000	 
 11.7500	   6.7650	  0.0000	 
 12.3125	   3.0587	  0.0000	 
 12.3125	   8.9413	  0.0000	 
 12.3125	   4.0550	  0.0000	 
 12.3125	   7.9450	  0.0000	 
 12.3125	   5.0512	  0.0000	 
 12.3125	   6.9488	  0.0000	 
 12.8750	   2.5392	  0.0000	 
 12.8750	   9.4608	  0.0000	 
 12.8750	   3.7033	  0.0000	 
 12.8750	   8.2967	  0.0000	 
 12.8750	   4.8675	  0.0000	 
 12.8750	   7.1325	  0.0000	 
 13.4375	   2.0196	  0.0000	 
 13.4375	   9.9804	  0.0000	 
 13.4375	   3.3517	  0.0000	 
 13.4375	   8.6483	  0.0000	 
 13.4375	   4.6837	  0.0000	 
 13.4375	   7.3163	  0.0000	 
 14.0000	   1.5000	  0.0000	 
 14.0000	  10.5000	  0.0000	 
 14.0000	   3.0000	  0.0000	 
 14.0000	   9.0000	  0.0000	 
 14.0000	   4.5000	  0.0000	 
 14.0000	   7.5000	  0.0000	 
 10.0625	   6.0000	  0.0000	 
 10.6250	   6.0000	  0.0000	 
 11.1875	   6.0000	  0.0000	 
 11.7500	   6.0000	  0.0000	 
 12.3125	   6.0000	  0.0000	 
 12.8750	   6.0000	  0.0000	 
 13.4375	   6.0000	  0.0000	 
 14.0000	   6.0000	  0.0000	 
 15.8333	   0.0000	  0.0000	 
 15.8333	   1.5000	  0.0000	 
 15.8333	   3.0000	  0.0000	 
 15.8333	   4.5000	  0.0000	 
 15.8333	   6.0000	  0.0000	 
 15.8333	   7.5000	  0.0000	 
 15.8333	   9.0000	  0.0000	 
 15.8333	  10.5000	  0.0000	 
 15.8333	  12.0000	  0.0000	 
 17.6667	   0.0000	  0.0000	 
 17.6667	   1.5000	  0.0000	 
 17.6667	   3.0000	  0.0000	 
 17.6667	   4.5000	  0.0000	 
 17.6667	   6.0000	  0.0000	 
 17.6667	   7.5000	  0.0000	 
 17.6667	   9.0000	  0.0000	 
 17.6667	  10.5000	  0.0000	 
 17.6667	  12.0000	  0.0000	 
 19.5000	   0.0000	  0.0000	 
 19.5000	   1.5000	  0.0000	 
 19.5000	   3.0000	  0.0000	 
 19.5000	   4.5000	  0.0000	 
 19.5000	   6.0000	  0.0000	 
 19.5000	   7.5000	  0.0000	 
 19.5000	   9.0000	  0.0000	 
 19.5000	  10.5000	  0.0000	 
 19.5000	  12.0000	  0.0000	 

CELLS 	     528 	    2112 
       3	       30	      37	       31	
       3	      275	     271	      262	
       3	       34	      41	       74	
       3	        6	      13	       68	
       3	      194	     192	      186	
       3	      182	     188	      180	
       3	        5	      13	        6	
       3	       23	      22	       29	
       3	       91	      93	       75	
       3	       20	      13	        5	
       3	       67	      65	       81	
       3	       70	      84	       68	
       3	        0	      63	       65	
       3	       26	      25	       33	
       3	       20	       5	       12	
       3	       55	      47	       54	
       3	       20	      70	       13	
       3	       73	      28	       71	
       3	      102	     104	      122	
       3	      127	     129	      109	
       3	      140	     160	      138	
       3	      241	     235	      243	
       3	      277	     261	      263	
[...]
POINT_DATA 	     299 
VECTORS U float 
 50.0000	  -0.0000	   0.0000	
 50.0000	   0.0000	   0.0000	
 50.0000	   0.0000	   0.0000	
 50.0000	   0.0000	   0.0000	
 50.0000	   0.0000	   0.0000	
 50.0000	   0.0000	   0.0000	
 50.0000	   0.0000	   0.0000	
 48.9993	  24.3851	   0.0000	
 50.4761	  24.8859	   0.0000	
 46.3268	  41.9857	   0.0000	
 44.3095	  56.3066	   0.0000	
 56.3027	  64.3945	   0.0000	
 48.1759	  38.7713	   0.0000	
 52.4113	  53.5870	   0.0000	
 50.0482	  51.0271	   0.0000	
 40.4454	  57.7687	   0.0000	
 38.3609	  78.5575	   0.0000	
 44.6391	  81.6282	   0.0000	
 50.1044	  84.0330	   0.0000	
 64.3483	  90.8661	   0.0000	
 38.2867	  84.9745	   0.0000	
 46.4724	  70.6337	   0.0000	
 31.1818	  74.9450	   0.0000	
 35.2351	  80.7372	   0.0000	
 41.2842	  87.0258	   0.0000	
 49.3097	  91.4189	   0.0000	
 53.9340	  96.1436	   0.0000	
 49.7406	 112.7275	   0.0000	
 35.4902	  68.9051	   0.0000	
 28.5852	  70.0402	   0.0000	
 34.8598	  74.2048	   0.0000	
 38.2378	  76.8743	   0.0000	
 41.5600	  85.2860	   0.0000	
 53.9381	  86.0884	   0.0000	
 43.9364	  85.4356	   0.0000	
 30.4935	  77.2656	   0.0000	
 28.3006	  75.9842	   0.0000	
 34.0337	  75.1371	   0.0000	
 29.9530	  83.2476	   0.0000	
 32.4350	  96.2150	   0.0000	
 52.3630	 107.3538	   0.0000	
 56.7395	  99.0962	   0.0000	
 28.4046	  72.8889	   0.0000	
 29.9627	  76.9887	   0.0000	
 27.7559	  87.6847	   0.0000	
  6.1319	 104.5744	   0.0000	
 17.4939	 124.1711	   0.0000	
 31.5257	 129.9684	   0.0000	
 69.4090	 108.0040	   0.0000	
 15.5650	  49.7763	   0.0000	
 12.1597	  57.0940	   0.0000	
 -0.1276	  64.6675	   0.0000	
  1.4616	  66.6377	   0.0000	
 -1.0650	  66.5334	   0.0000	
 14.5824	  69.4787	   0.0000	
 44.7675	  67.4934	   0.0000	
 -0.0000	  -0.0000	   0.0000	
  0.0000	  -0.0000	   0.0000	
 -0.0000	  -0.0000	   0.0000	
  0.0000	   0.0000	   0.0000	
  0.0000	  -0.0000	   0.0000	
  0.0000	  -0.0000	   0.0000	
 -0.0000	   0.0000	   0.0000	
 50.0000	  50.0000	   0.0000	
 50.0000	  -0.0000	   0.0000	
 70.1793	  52.9248	   0.0000	
 54.8666	  49.0493	   0.0000	
 78.4997	  63.9129	   0.0000	
 45.3759	  90.4918	   0.0000	
 54.7866	  78.7291	   0.0000	
 54.5787	  98.4872	   0.0000	
 55.0875	  71.5105	   0.0000	
 56.9055	  83.9496	   0.0000	
 36.8278	  74.4116	   0.0000	
 52.8238	  73.6430	   0.0000	
 24.3194	  63.6208	   0.0000	
 84.5425	  80.0125	   0.0000	
 19.4977	  43.5430	   0.0000	
 92.6605	  56.0231	   0.0000	
 -0.0000	   0.0000	   0.0000	
 -0.0000	   0.0000	   0.0000	
 33.3288	  50.0000	   0.0000	
110.5481	 157.3958	   0.0000	
 53.1498	  44.1883	   0.0000	
 17.3456	 115.5281	   0.0000	
 45.5902	  45.0284	   0.0000	
 13.7036	  95.5569	   0.0000	
 45.7176	  44.3222	   0.0000	
 29.1690	  91.0148	   0.0000	
 39.8429	  40.5266	   0.0000	
 29.3404	  80.5716	   0.0000	
 33.3969	  33.4351	   0.0000	
 43.1340	  62.7771	   0.0000	
 26.8024	  23.9563	   0.0000	
 67.2580	  45.7496	   0.0000	
 55.7960	  -0.5564	   0.0000	
 34.0433	   5.0213	   0.0000	
 -0.0000	   0.0000	   0.0000	
 -0.0000	   0.0000	   0.0000	
 61.6341	  50.0000	   0.0000	
-19.5053	  67.0734	   0.0000	
 42.8173	  54.6667	   0.0000	
  5.1694	  72.0368	   0.0000	
 48.9808	  55.2916	   0.0000	
  5.7079	  69.3022	   0.0000	
 51.3452	  55.8775	   0.0000	
 16.6646	  63.8786	   0.0000	
 56.5711	  55.4345	   0.0000	
  3.4527	  57.9591	   0.0000	
 53.6719	  54.9226	   0.0000	
 15.4409	  52.4133	   0.0000	
 69.7131	  49.2697	   0.0000	
  6.3769	  33.9007	   0.0000	
 74.3179	  54.1526	   0.0000	
 12.1053	  32.8810	   0.0000	
 14.7413	  52.2676	   0.0000	
 11.7229	  45.3782	   0.0000	
 45.2514	  50.0000	   0.0000	
  3.2556	  54.2078	   0.0000	
 44.9696	  49.4693	   0.0000	
  3.5020	  54.9391	   0.0000	
 45.1750	  49.5017	   0.0000	
  7.3518	  55.4023	   0.0000	
 46.0709	  51.0250	   0.0000	
  3.9645	  57.6549	   0.0000	
 48.1533	  55.0630	   0.0000	
  8.4364	  60.4239	   0.0000	
 42.0301	  57.8131	   0.0000	
 14.8426	  61.9221	   0.0000	
 59.1068	  65.9459	   0.0000	
 -8.1042	  66.2249	   0.0000	
 59.2117	  75.0169	   0.0000	
 13.4336	  65.8643	   0.0000	
 18.8450	  80.7739	   0.0000	
 30.2544	  61.8187	   0.0000	
 46.7779	  50.0000	   0.0000	
 -0.4255	  45.3042	   0.0000	
 42.9038	  49.3449	   0.0000	
  4.9047	  45.7417	   0.0000	
 44.9806	  50.8739	   0.0000	
  6.6686	  46.6156	   0.0000	
 41.3431	  50.4708	   0.0000	
  8.7958	  48.2416	   0.0000	
 40.5522	  52.4275	   0.0000	
 11.9461	  50.6834	   0.0000	
 38.6799	  53.4190	   0.0000	
 14.9718	  51.2018	   0.0000	
 44.4644	  56.1796	   0.0000	
  3.4720	  55.3121	   0.0000	
 47.7256	  66.2708	   0.0000	
 14.7692	  65.5526	   0.0000	
 13.8962	  72.2120	   0.0000	
 27.7919	  65.1233	   0.0000	
 62.1538	  50.0000	   0.0000	
 -0.0784	  29.2612	   0.0000	
 55.1510	  46.4799	   0.0000	
  3.3776	  32.6115	   0.0000	
 45.2117	  41.5864	   0.0000	
  7.3010	  35.7544	   0.0000	
 45.9721	  43.4958	   0.0000	
  7.8279	  39.3595	   0.0000	
 41.6645	  44.4320	   0.0000	
 11.6942	  41.1647	   0.0000	
 39.8825	  45.5586	   0.0000	
 14.9185	  43.1586	   0.0000	
 40.7104	  48.5343	   0.0000	
 12.9371	  48.7483	   0.0000	
 35.6634	  52.8726	   0.0000	
 28.0517	  55.3355	   0.0000	
 10.4879	  64.9532	   0.0000	
 28.1494	  67.1902	   0.0000	
  0.0000	   0.0000	   0.0000	
  0.0000	   0.0000	   0.0000	
  0.0000	  -0.0000	   0.0000	
 -0.0000	   0.0000	   0.0000	
 -0.0000	   0.0000	   0.0000	
  0.0000	  -0.0000	   0.0000	
  0.0000	   0.0000	   0.0000	
  0.0000	   0.0000	   0.0000	
 -2.7752	  50.8150	   0.0000	
-20.0244	  50.3898	   0.0000	
  5.9448	  49.7526	   0.0000	
 15.4358	  46.4140	   0.0000	
  0.0000	   0.0000	   0.0000	
  0.0000	   0.0000	   0.0000	
  8.2203	  81.7266	   0.0000	
 21.4729	  66.0767	   0.0000	
  4.7551	  77.9763	   0.0000	
  9.7843	  71.6585	   0.0000	
  0.0000	   0.0000	   0.0000	
  0.0000	   0.0000	   0.0000	
 26.3784	  71.1183	   0.0000	
 29.3577	  66.7647	   0.0000	
 32.8345	  68.6992	   0.0000	
 35.0527	  64.0838	   0.0000	
  0.0000	   0.0000	   0.0000	
  0.0000	   0.0000	   0.0000	
 36.4309	  63.6885	   0.0000	
 28.7925	  66.7831	   0.0000	
 28.6050	  63.5455	   0.0000	
 26.7344	  65.4501	   0.0000	
  0.0000	  -0.0000	   0.0000	
 -0.0000	   0.0000	   0.0000	
 -0.0000	   0.0000	   0.0000	
 -2.1802	  50.9936	   0.0000	
  3.2685	  49.8480	   0.0000	
 -7.6890	  50.6646	   0.0000	
 18.8271	  74.8419	   0.0000	
 25.3219	  73.0940	   0.0000	
 15.3526	  74.0752	   0.0000	
 29.5073	  67.4108	   0.0000	
 36.2778	  67.8849	   0.0000	
 29.3948	  67.1555	   0.0000	
 30.9377	  64.9104	   0.0000	
 33.5277	  62.6502	   0.0000	
 33.5887	  66.2524	   0.0000	
 24.4753	  51.7404	   0.0000	
 27.1167	  54.1147	   0.0000	
 21.6837	  45.3980	   0.0000	
 23.2054	  51.5251	   0.0000	
 31.4833	  47.8225	   0.0000	
 24.5936	  48.8350	   0.0000	
 36.3386	  51.3358	   0.0000	
 24.9632	  52.1472	   0.0000	
 31.3981	  52.4433	   0.0000	
 24.7491	  49.3584	   0.0000	
 23.8197	  49.1139	   0.0000	
 22.7275	  51.1131	   0.0000	
 36.7640	  50.4904	   0.0000	
 17.0410	  47.6236	   0.0000	
 33.6484	  51.5967	   0.0000	
 23.9634	  45.3499	   0.0000	
 29.2737	  52.6491	   0.0000	
 24.8756	  45.7673	   0.0000	
 36.6566	  46.5318	   0.0000	
 18.1145	  43.6556	   0.0000	
 35.4287	  46.9306	   0.0000	
 18.9215	  45.8565	   0.0000	
 29.8310	  46.7631	   0.0000	
 25.4035	  44.3728	   0.0000	
 38.5014	  44.4052	   0.0000	
 15.5610	  41.7845	   0.0000	
 36.0258	  43.6820	   0.0000	
 20.0461	  40.6065	   0.0000	
 31.2150	  45.1613	   0.0000	
 23.5007	  44.3558	   0.0000	
 41.4041	  44.6470	   0.0000	
 12.6502	  37.8582	   0.0000	
 37.3029	  43.0841	   0.0000	
 18.1667	  37.7670	   0.0000	
 31.4808	  43.5882	   0.0000	
 24.6281	  39.3224	   0.0000	
 42.6930	  42.1341	   0.0000	
 10.3461	  33.8139	   0.0000	
 39.2019	  40.8930	   0.0000	
 16.9117	  34.5298	   0.0000	
 32.2167	  40.4377	   0.0000	
 24.7184	  36.3280	   0.0000	
 47.9973	  47.0098	   0.0000	
  8.2090	  29.3983	   0.0000	
 41.4124	  39.4597	   0.0000	
 15.6284	  29.9956	   0.0000	
 34.3472	  36.8691	   0.0000	
 23.6903	  30.7455	   0.0000	
 27.9620	  48.9061	   0.0000	
 28.3808	  50.7599	   0.0000	
 26.9614	  48.7978	   0.0000	
 29.8817	  45.3927	   0.0000	
 30.8487	  44.6201	   0.0000	
 30.7937	  42.3316	   0.0000	
 31.9913	  38.6611	   0.0000	
 32.7845	  29.6484	   0.0000	
 65.8324	  50.0000	   0.0000	
 58.0003	  41.3023	   0.0000	
 46.2195	  35.3143	   0.0000	
 44.5307	  24.8207	   0.0000	
 31.9190	  24.2420	   0.0000	
 24.5700	  23.0043	   0.0000	
 16.0807	  22.3786	   0.0000	
  8.3298	  22.4631	   0.0000	
 -0.4927	  22.5644	   0.0000	
 77.1353	  50.0000	   0.0000	
 69.2896	  38.9030	   0.0000	
 63.3643	  21.0622	   0.0000	
 47.6561	  15.3699	   0.0000	
 34.9977	  11.0534	   0.0000	
 26.1785	   8.5205	   0.0000	
 16.5719	   7.3240	   0.0000	
  8.4563	   6.7159	   0.0000	
 -0.2718	   6.5118	   0.0000	
 92.1479	  50.0000	   0.0000	
 94.0467	  28.6272	   0.0000	
 72.9990	  19.4013	   0.0000	
 54.7069	  12.8995	   0.0000	
 39.3884	   8.5659	   0.0000	
 28.3241	   6.4796	   0.0000	
 17.7233	   5.3535	   0.0000	
  8.8135	   4.9525	   0.0000	
  2.5691	   2.6184	   0.0000	
